N -t 1.000000 -n 0 -e 9.992000
N -t 1.000000 -n 1 -e 9.992000
N -t 1.000000 -n 2 -e 9.992000
N -t 1.000000 -n 3 -e 9.992000
N -t 1.000000 -n 4 -e 9.992000
N -t 1.000000 -n 5 -e 9.992000
s 1.330025000 _5_ MAC  --- 0 vectorbasedforward 50 [0 5000000 ffff0008 0] [energy 9.992000 ei 0.008 es 0.000 et 0.000 er 0.000] ------- [5:0 5:255 0 0] 
r 1.396691667 _4_ MAC  --- 0 vectorbasedforward 50 [0 5000000 ffff0008 0] [energy 9.959146 ei 0.011 es 0.000 et 0.000 er 0.030] ------- [5:0 5:255 0 0] 
N -t 2.000000 -n 0 -e 9.984000
N -t 2.000000 -n 1 -e 9.984000
N -t 2.000000 -n 2 -e 9.984000
N -t 2.000000 -n 3 -e 9.984000
N -t 2.000000 -n 4 -e 9.954320
N -t 2.000000 -n 5 -e 9.904320
s 2.251338336 _4_ MAC  --- 0 vectorbasedforward 50 [0 4000000 ffff0008 0] [energy 9.954320 ei 0.016 es 0.000 et 0.000 er 0.030] ------- [5:0 5:255 0 0] 
r 2.318005003 _5_ MAC  --- 0 vectorbasedforward 50 [0 4000000 ffff0008 0] [energy 9.872096 ei 0.018 es 0.000 et 0.080 er 0.030] ------- [5:0 5:255 0 0] 
N -t 3.000000 -n 0 -e 9.976000
N -t 3.000000 -n 1 -e 9.976000
N -t 3.000000 -n 2 -e 9.976000
N -t 3.000000 -n 3 -e 9.946320
N -t 3.000000 -n 4 -e 9.866640
N -t 3.000000 -n 5 -e 9.866640
N -t 4.000000 -n 0 -e 9.968000
N -t 4.000000 -n 1 -e 9.968000
N -t 4.000000 -n 2 -e 9.968000
N -t 4.000000 -n 3 -e 9.938320
N -t 4.000000 -n 4 -e 9.858640
N -t 4.000000 -n 5 -e 9.858640
N -t 5.000000 -n 0 -e 9.960000
N -t 5.000000 -n 1 -e 9.960000
N -t 5.000000 -n 2 -e 9.960000
N -t 5.000000 -n 3 -e 9.930320
N -t 5.000000 -n 4 -e 9.850640
N -t 5.000000 -n 5 -e 9.850640
N -t 6.000000 -n 0 -e 9.952000
N -t 6.000000 -n 1 -e 9.952000
N -t 6.000000 -n 2 -e 9.952000
N -t 6.000000 -n 3 -e 9.922320
N -t 6.000000 -n 4 -e 9.842640
N -t 6.000000 -n 5 -e 9.842640
s 6.330025000 _5_ MAC  --- 1 vectorbasedforward 50 [0 5000000 ffff0008 0] [energy 9.842640 ei 0.047 es 0.000 et 0.080 er 0.030] ------- [5:0 5:255 0 0] 
r 6.396691667 _4_ MAC  --- 1 vectorbasedforward 50 [0 5000000 ffff0008 0] [energy 9.809786 ei 0.050 es 0.000 et 0.080 er 0.060] ------- [5:0 5:255 0 0] 
N -t 7.000000 -n 0 -e 9.944000
N -t 7.000000 -n 1 -e 9.944000
N -t 7.000000 -n 2 -e 9.944000
N -t 7.000000 -n 3 -e 9.914320
N -t 7.000000 -n 4 -e 9.804960
N -t 7.000000 -n 5 -e 9.754960
s 7.251338336 _4_ MAC  --- 1 vectorbasedforward 50 [0 4000000 ffff0008 0] [energy 9.804960 ei 0.055 es 0.000 et 0.080 er 0.060] ------- [5:0 5:255 0 0] 
r 7.318005003 _5_ MAC  --- 1 vectorbasedforward 50 [0 4000000 ffff0008 0] [energy 9.722736 ei 0.057 es 0.000 et 0.160 er 0.060] ------- [5:0 5:255 0 0] 
r 7.339064406 _3_ MAC  --- 1 vectorbasedforward 50 [0 4000000 ffff0008 0] [energy 9.881927 ei 0.058 es 0.000 et 0.000 er 0.060] ------- [5:0 5:255 0 0] 
N -t 8.000000 -n 0 -e 9.936000
N -t 8.000000 -n 1 -e 9.936000
N -t 8.000000 -n 2 -e 9.936000
N -t 8.000000 -n 3 -e 9.876640
N -t 8.000000 -n 4 -e 9.717280
N -t 8.000000 -n 5 -e 9.717280
s 8.047815992 _3_ MAC  --- 1 vectorbasedforward 50 [0 3000000 ffff0008 0] [energy 9.876640 ei 0.063 es 0.000 et 0.000 er 0.060] ------- [5:0 5:255 0 0] 
r 8.121149326 _2_ MAC  --- 1 vectorbasedforward 50 [0 3000000 ffff0008 0] [energy 9.905351 ei 0.065 es 0.000 et 0.000 er 0.030] ------- [5:0 5:255 0 0] 
r 8.135542062 _4_ MAC  --- 1 vectorbasedforward 50 [0 3000000 ffff0008 0] [energy 9.686516 ei 0.063 es 0.000 et 0.160 er 0.090] ------- [5:0 5:255 0 0] 
N -t 9.000000 -n 0 -e 9.928000
N -t 9.000000 -n 1 -e 9.928000
N -t 9.000000 -n 2 -e 9.898320
N -t 9.000000 -n 3 -e 9.788960
N -t 9.000000 -n 4 -e 9.679600
N -t 9.000000 -n 5 -e 9.709280
s 9.040878299 _2_ MAC  --- 1 vectorbasedforward 50 [0 2000000 ffff0008 0] [energy 9.898320 ei 0.072 es 0.000 et 0.000 er 0.030] ------- [5:0 5:255 0 0] 
r 9.128604369 _1_ MAC  --- 1 vectorbasedforward 50 [0 2000000 ffff0008 0] [energy 9.897291 ei 0.073 es 0.000 et 0.000 er 0.030] ------- [5:0 5:255 0 0] 
s 9.703702583 _1_ MAC  --- 1 vectorbasedforward 50 [0 1000000 ffff0008 0] [energy 9.897291 ei 0.073 es 0.000 et 0.000 er 0.030] ------- [5:0 5:255 0 0] 
r 9.791428654 _2_ MAC  --- 1 vectorbasedforward 50 [0 1000000 ffff0008 0] [energy 9.782629 ei 0.077 es 0.000 et 0.080 er 0.060] ------- [5:0 5:255 0 0] 
r 9.797035917 _0_ MAC  --- 1 vectorbasedforward 50 [0 1000000 ffff0008 0] [energy 9.891944 ei 0.078 es 0.000 et 0.000 er 0.030] ------- [5:0 5:255 0 0] 
N -t 10.000000 -n 0 -e 9.890320
N -t 10.000000 -n 1 -e 9.810640
N -t 10.000000 -n 2 -e 9.780960
N -t 10.000000 -n 3 -e 9.751280
N -t 10.000000 -n 4 -e 9.671600
N -t 10.000000 -n 5 -e 9.701280
N -t 11.000000 -n 0 -e 9.882320
N -t 11.000000 -n 1 -e 9.802640
N -t 11.000000 -n 2 -e 9.772960
N -t 11.000000 -n 3 -e 9.743280
N -t 11.000000 -n 4 -e 9.663600
N -t 11.000000 -n 5 -e 9.693280
s 11.330025000 _5_ MAC  --- 2 vectorbasedforward 50 [0 5000000 ffff0008 0] [energy 9.693280 ei 0.087 es 0.000 et 0.160 er 0.060] ------- [5:0 5:255 0 0] 
r 11.396691667 _4_ MAC  --- 2 vectorbasedforward 50 [0 5000000 ffff0008 0] [energy 9.630746 ei 0.089 es 0.000 et 0.160 er 0.120] ------- [5:0 5:255 0 0] 
N -t 12.000000 -n 0 -e 9.874320
N -t 12.000000 -n 1 -e 9.794640
N -t 12.000000 -n 2 -e 9.764960
N -t 12.000000 -n 3 -e 9.735280
N -t 12.000000 -n 4 -e 9.625920
N -t 12.000000 -n 5 -e 9.605600
s 12.251338336 _4_ MAC  --- 2 vectorbasedforward 50 [0 4000000 ffff0008 0] [energy 9.625920 ei 0.094 es 0.000 et 0.160 er 0.120] ------- [5:0 5:255 0 0] 
r 12.318005003 _5_ MAC  --- 2 vectorbasedforward 50 [0 4000000 ffff0008 0] [energy 9.573376 ei 0.097 es 0.000 et 0.240 er 0.090] ------- [5:0 5:255 0 0] 
N -t 13.000000 -n 0 -e 9.866320
N -t 13.000000 -n 1 -e 9.786640
N -t 13.000000 -n 2 -e 9.756960
N -t 13.000000 -n 3 -e 9.697600
N -t 13.000000 -n 4 -e 9.538240
N -t 13.000000 -n 5 -e 9.567920
N -t 14.000000 -n 0 -e 9.858320
N -t 14.000000 -n 1 -e 9.778640
N -t 14.000000 -n 2 -e 9.748960
N -t 14.000000 -n 3 -e 9.689600
N -t 14.000000 -n 4 -e 9.530240
N -t 14.000000 -n 5 -e 9.559920
N -t 15.000000 -n 0 -e 9.850320
N -t 15.000000 -n 1 -e 9.770640
N -t 15.000000 -n 2 -e 9.740960
N -t 15.000000 -n 3 -e 9.681600
N -t 15.000000 -n 4 -e 9.522240
N -t 15.000000 -n 5 -e 9.551920
N -t 16.000000 -n 0 -e 9.842320
N -t 16.000000 -n 1 -e 9.762640
N -t 16.000000 -n 2 -e 9.732960
N -t 16.000000 -n 3 -e 9.673600
N -t 16.000000 -n 4 -e 9.514240
N -t 16.000000 -n 5 -e 9.543920
s 16.330025000 _5_ MAC  --- 3 vectorbasedforward 50 [0 5000000 ffff0008 0] [energy 9.543920 ei 0.126 es 0.000 et 0.240 er 0.090] ------- [5:0 5:255 0 0] 
r 16.396691667 _4_ MAC  --- 3 vectorbasedforward 50 [0 5000000 ffff0008 0] [energy 9.481386 ei 0.129 es 0.000 et 0.240 er 0.150] ------- [5:0 5:255 0 0] 
N -t 17.000000 -n 0 -e 9.834320
N -t 17.000000 -n 1 -e 9.754640
N -t 17.000000 -n 2 -e 9.724960
N -t 17.000000 -n 3 -e 9.665600
N -t 17.000000 -n 4 -e 9.476560
N -t 17.000000 -n 5 -e 9.456240
s 17.251338336 _4_ MAC  --- 3 vectorbasedforward 50 [0 4000000 ffff0008 0] [energy 9.476560 ei 0.133 es 0.000 et 0.240 er 0.150] ------- [5:0 5:255 0 0] 
r 17.318005003 _5_ MAC  --- 3 vectorbasedforward 50 [0 4000000 ffff0008 0] [energy 9.424016 ei 0.136 es 0.000 et 0.320 er 0.120] ------- [5:0 5:255 0 0] 
r 17.339064406 _3_ MAC  --- 3 vectorbasedforward 50 [0 4000000 ffff0008 0] [energy 9.633207 ei 0.137 es 0.000 et 0.080 er 0.150] ------- [5:0 5:255 0 0] 
N -t 18.000000 -n 0 -e 9.826320
N -t 18.000000 -n 1 -e 9.746640
N -t 18.000000 -n 2 -e 9.716960
N -t 18.000000 -n 3 -e 9.627920
N -t 18.000000 -n 4 -e 9.388880
N -t 18.000000 -n 5 -e 9.418560
s 18.047815992 _3_ MAC  --- 3 vectorbasedforward 50 [0 3000000 ffff0008 0] [energy 9.627920 ei 0.142 es 0.000 et 0.080 er 0.150] ------- [5:0 5:255 0 0] 
r 18.121149326 _2_ MAC  --- 3 vectorbasedforward 50 [0 3000000 ffff0008 0] [energy 9.686311 ei 0.144 es 0.000 et 0.080 er 0.090] ------- [5:0 5:255 0 0] 
r 18.135542062 _4_ MAC  --- 3 vectorbasedforward 50 [0 3000000 ffff0008 0] [energy 9.358116 ei 0.142 es 0.000 et 0.320 er 0.180] ------- [5:0 5:255 0 0] 
N -t 19.000000 -n 0 -e 9.818320
N -t 19.000000 -n 1 -e 9.738640
N -t 19.000000 -n 2 -e 9.679280
N -t 19.000000 -n 3 -e 9.540240
N -t 19.000000 -n 4 -e 9.351200
N -t 19.000000 -n 5 -e 9.410560
s 19.040878299 _2_ MAC  --- 3 vectorbasedforward 50 [0 2000000 ffff0008 0] [energy 9.679280 ei 0.151 es 0.000 et 0.080 er 0.090] ------- [5:0 5:255 0 0] 
r 19.128604369 _1_ MAC  --- 3 vectorbasedforward 50 [0 2000000 ffff0008 0] [energy 9.707931 ei 0.152 es 0.000 et 0.080 er 0.060] ------- [5:0 5:255 0 0] 
s 19.703702583 _1_ MAC  --- 3 vectorbasedforward 50 [0 1000000 ffff0008 0] [energy 9.707931 ei 0.152 es 0.000 et 0.080 er 0.060] ------- [5:0 5:255 0 0] 
r 19.791428654 _2_ MAC  --- 3 vectorbasedforward 50 [0 1000000 ffff0008 0] [energy 9.563589 ei 0.156 es 0.000 et 0.160 er 0.120] ------- [5:0 5:255 0 0] 
r 19.797035917 _0_ MAC  --- 3 vectorbasedforward 50 [0 1000000 ffff0008 0] [energy 9.782264 ei 0.158 es 0.000 et 0.000 er 0.060] ------- [5:0 5:255 0 0] 
N -t 20.000000 -n 0 -e 9.780640
N -t 20.000000 -n 1 -e 9.621280
N -t 20.000000 -n 2 -e 9.561920
N -t 20.000000 -n 3 -e 9.502560
N -t 20.000000 -n 4 -e 9.343200
N -t 20.000000 -n 5 -e 9.402560
N -t 21.000000 -n 0 -e 9.772640
N -t 21.000000 -n 1 -e 9.613280
N -t 21.000000 -n 2 -e 9.553920
N -t 21.000000 -n 3 -e 9.494560
N -t 21.000000 -n 4 -e 9.335200
N -t 21.000000 -n 5 -e 9.394560
s 21.330025000 _5_ MAC  --- 4 vectorbasedforward 50 [0 5000000 ffff0008 0] [energy 9.394560 ei 0.165 es 0.000 et 0.320 er 0.120] ------- [5:0 5:255 0 0] 
r 21.396691667 _4_ MAC  --- 4 vectorbasedforward 50 [0 5000000 ffff0008 0] [energy 9.302346 ei 0.168 es 0.000 et 0.320 er 0.210] ------- [5:0 5:255 0 0] 
N -t 22.000000 -n 0 -e 9.764640
N -t 22.000000 -n 1 -e 9.605280
N -t 22.000000 -n 2 -e 9.545920
N -t 22.000000 -n 3 -e 9.486560
N -t 22.000000 -n 4 -e 9.297520
N -t 22.000000 -n 5 -e 9.306880
s 22.251338336 _4_ MAC  --- 4 vectorbasedforward 50 [0 4000000 ffff0008 0] [energy 9.297520 ei 0.172 es 0.000 et 0.320 er 0.210] ------- [5:0 5:255 0 0] 
r 22.318005003 _5_ MAC  --- 4 vectorbasedforward 50 [0 4000000 ffff0008 0] [energy 9.274656 ei 0.175 es 0.000 et 0.400 er 0.150] ------- [5:0 5:255 0 0] 
N -t 23.000000 -n 0 -e 9.756640
N -t 23.000000 -n 1 -e 9.597280
N -t 23.000000 -n 2 -e 9.537920
N -t 23.000000 -n 3 -e 9.448880
N -t 23.000000 -n 4 -e 9.209840
N -t 23.000000 -n 5 -e 9.269200
N -t 24.000000 -n 0 -e 9.748640
N -t 24.000000 -n 1 -e 9.589280
N -t 24.000000 -n 2 -e 9.529920
N -t 24.000000 -n 3 -e 9.440880
N -t 24.000000 -n 4 -e 9.201840
N -t 24.000000 -n 5 -e 9.261200
N -t 25.000000 -n 0 -e 9.740640
N -t 25.000000 -n 1 -e 9.581280
N -t 25.000000 -n 2 -e 9.521920
N -t 25.000000 -n 3 -e 9.432880
N -t 25.000000 -n 4 -e 9.193840
N -t 25.000000 -n 5 -e 9.253200
N -t 26.000000 -n 0 -e 9.732640
N -t 26.000000 -n 1 -e 9.573280
N -t 26.000000 -n 2 -e 9.513920
N -t 26.000000 -n 3 -e 9.424880
N -t 26.000000 -n 4 -e 9.185840
N -t 26.000000 -n 5 -e 9.245200
s 26.330025000 _5_ MAC  --- 5 vectorbasedforward 50 [0 5000000 ffff0008 0] [energy 9.245200 ei 0.205 es 0.000 et 0.400 er 0.150] ------- [5:0 5:255 0 0] 
r 26.396691667 _4_ MAC  --- 5 vectorbasedforward 50 [0 5000000 ffff0008 0] [energy 9.152986 ei 0.207 es 0.000 et 0.400 er 0.240] ------- [5:0 5:255 0 0] 
N -t 27.000000 -n 0 -e 9.724640
N -t 27.000000 -n 1 -e 9.565280
N -t 27.000000 -n 2 -e 9.505920
N -t 27.000000 -n 3 -e 9.416880
N -t 27.000000 -n 4 -e 9.148160
N -t 27.000000 -n 5 -e 9.157520
s 27.251338336 _4_ MAC  --- 5 vectorbasedforward 50 [0 4000000 ffff0008 0] [energy 9.148160 ei 0.212 es 0.000 et 0.400 er 0.240] ------- [5:0 5:255 0 0] 
r 27.318005003 _5_ MAC  --- 5 vectorbasedforward 50 [0 4000000 ffff0008 0] [energy 9.125296 ei 0.215 es 0.000 et 0.480 er 0.180] ------- [5:0 5:255 0 0] 
r 27.339064406 _3_ MAC  --- 5 vectorbasedforward 50 [0 4000000 ffff0008 0] [energy 9.384487 ei 0.216 es 0.000 et 0.160 er 0.240] ------- [5:0 5:255 0 0] 
N -t 28.000000 -n 0 -e 9.716640
N -t 28.000000 -n 1 -e 9.557280
N -t 28.000000 -n 2 -e 9.497920
N -t 28.000000 -n 3 -e 9.379200
N -t 28.000000 -n 4 -e 9.060480
N -t 28.000000 -n 5 -e 9.119840
s 28.047815992 _3_ MAC  --- 5 vectorbasedforward 50 [0 3000000 ffff0008 0] [energy 9.379200 ei 0.221 es 0.000 et 0.160 er 0.240] ------- [5:0 5:255 0 0] 
r 28.121149326 _2_ MAC  --- 5 vectorbasedforward 50 [0 3000000 ffff0008 0] [energy 9.467271 ei 0.223 es 0.000 et 0.160 er 0.150] ------- [5:0 5:255 0 0] 
r 28.135542062 _4_ MAC  --- 5 vectorbasedforward 50 [0 3000000 ffff0008 0] [energy 9.029716 ei 0.220 es 0.000 et 0.480 er 0.270] ------- [5:0 5:255 0 0] 
N -t 29.000000 -n 0 -e 9.708640
N -t 29.000000 -n 1 -e 9.549280
N -t 29.000000 -n 2 -e 9.460240
N -t 29.000000 -n 3 -e 9.291520
N -t 29.000000 -n 4 -e 9.022800
N -t 29.000000 -n 5 -e 9.111840
s 29.040878299 _2_ MAC  --- 5 vectorbasedforward 50 [0 2000000 ffff0008 0] [energy 9.460240 ei 0.230 es 0.000 et 0.160 er 0.150] ------- [5:0 5:255 0 0] 
r 29.114211632 _3_ MAC  --- 5 vectorbasedforward 50 [0 2000000 ffff0008 0] [energy 9.260926 ei 0.229 es 0.000 et 0.240 er 0.270] ------- [5:0 5:255 0 0] 
r 29.128604369 _1_ MAC  --- 5 vectorbasedforward 50 [0 2000000 ffff0008 0] [energy 9.518571 ei 0.231 es 0.000 et 0.160 er 0.090] ------- [5:0 5:255 0 0] 
s 29.703702583 _1_ MAC  --- 5 vectorbasedforward 50 [0 1000000 ffff0008 0] [energy 9.518571 ei 0.231 es 0.000 et 0.160 er 0.090] ------- [5:0 5:255 0 0] 
r 29.791428654 _2_ MAC  --- 5 vectorbasedforward 50 [0 1000000 ffff0008 0] [energy 9.344549 ei 0.235 es 0.000 et 0.240 er 0.180] ------- [5:0 5:255 0 0] 
r 29.797035917 _0_ MAC  --- 5 vectorbasedforward 50 [0 1000000 ffff0008 0] [energy 9.672584 ei 0.237 es 0.000 et 0.000 er 0.090] ------- [5:0 5:255 0 0] 
N -t 30.000000 -n 0 -e 9.670960
N -t 30.000000 -n 1 -e 9.431920
N -t 30.000000 -n 2 -e 9.342880
N -t 30.000000 -n 3 -e 9.253840
N -t 30.000000 -n 4 -e 9.014800
N -t 30.000000 -n 5 -e 9.103840
N -t 31.000000 -n 0 -e 9.662960
N -t 31.000000 -n 1 -e 9.423920
N -t 31.000000 -n 2 -e 9.334880
N -t 31.000000 -n 3 -e 9.245840
N -t 31.000000 -n 4 -e 9.006800
N -t 31.000000 -n 5 -e 9.095840
s 31.330025000 _5_ MAC  --- 6 vectorbasedforward 50 [0 5000000 ffff0008 0] [energy 9.095840 ei 0.244 es 0.000 et 0.480 er 0.180] ------- [5:0 5:255 0 0] 
r 31.396691667 _4_ MAC  --- 6 vectorbasedforward 50 [0 5000000 ffff0008 0] [energy 8.973946 ei 0.246 es 0.000 et 0.480 er 0.300] ------- [5:0 5:255 0 0] 
N -t 32.000000 -n 0 -e 9.654960
N -t 32.000000 -n 1 -e 9.415920
N -t 32.000000 -n 2 -e 9.326880
N -t 32.000000 -n 3 -e 9.237840
N -t 32.000000 -n 4 -e 8.969120
N -t 32.000000 -n 5 -e 9.008160
s 32.251338336 _4_ MAC  --- 6 vectorbasedforward 50 [0 4000000 ffff0008 0] [energy 8.969120 ei 0.251 es 0.000 et 0.480 er 0.300] ------- [5:0 5:255 0 0] 
r 32.318005003 _5_ MAC  --- 6 vectorbasedforward 50 [0 4000000 ffff0008 0] [energy 8.975936 ei 0.254 es 0.000 et 0.560 er 0.210] ------- [5:0 5:255 0 0] 
N -t 33.000000 -n 0 -e 9.646960
N -t 33.000000 -n 1 -e 9.407920
N -t 33.000000 -n 2 -e 9.318880
N -t 33.000000 -n 3 -e 9.200160
N -t 33.000000 -n 4 -e 8.881440
N -t 33.000000 -n 5 -e 8.970480
N -t 34.000000 -n 0 -e 9.638960
N -t 34.000000 -n 1 -e 9.399920
N -t 34.000000 -n 2 -e 9.310880
N -t 34.000000 -n 3 -e 9.192160
N -t 34.000000 -n 4 -e 8.873440
N -t 34.000000 -n 5 -e 8.962480
N -t 35.000000 -n 0 -e 9.630960
N -t 35.000000 -n 1 -e 9.391920
N -t 35.000000 -n 2 -e 9.302880
N -t 35.000000 -n 3 -e 9.184160
N -t 35.000000 -n 4 -e 8.865440
N -t 35.000000 -n 5 -e 8.954480
N -t 36.000000 -n 0 -e 9.622960
N -t 36.000000 -n 1 -e 9.383920
N -t 36.000000 -n 2 -e 9.294880
N -t 36.000000 -n 3 -e 9.176160
N -t 36.000000 -n 4 -e 8.857440
N -t 36.000000 -n 5 -e 8.946480
s 36.330025000 _5_ MAC  --- 7 vectorbasedforward 50 [0 5000000 ffff0008 0] [energy 8.946480 ei 0.284 es 0.000 et 0.560 er 0.210] ------- [5:0 5:255 0 0] 
r 36.396691667 _4_ MAC  --- 7 vectorbasedforward 50 [0 5000000 ffff0008 0] [energy 8.824586 ei 0.285 es 0.000 et 0.560 er 0.330] ------- [5:0 5:255 0 0] 
N -t 37.000000 -n 0 -e 9.614960
N -t 37.000000 -n 1 -e 9.375920
N -t 37.000000 -n 2 -e 9.286880
N -t 37.000000 -n 3 -e 9.168160
N -t 37.000000 -n 4 -e 8.819760
N -t 37.000000 -n 5 -e 8.858800
s 37.251338336 _4_ MAC  --- 7 vectorbasedforward 50 [0 4000000 ffff0008 0] [energy 8.819760 ei 0.290 es 0.000 et 0.560 er 0.330] ------- [5:0 5:255 0 0] 
r 37.318005003 _5_ MAC  --- 7 vectorbasedforward 50 [0 4000000 ffff0008 0] [energy 8.826576 ei 0.293 es 0.000 et 0.640 er 0.240] ------- [5:0 5:255 0 0] 
N -t 38.000000 -n 0 -e 9.606960
N -t 38.000000 -n 1 -e 9.367920
N -t 38.000000 -n 2 -e 9.278880
N -t 38.000000 -n 3 -e 9.130480
N -t 38.000000 -n 4 -e 8.732080
N -t 38.000000 -n 5 -e 8.821120
N -t 39.000000 -n 0 -e 9.598960
N -t 39.000000 -n 1 -e 9.359920
N -t 39.000000 -n 2 -e 9.270880
N -t 39.000000 -n 3 -e 9.122480
N -t 39.000000 -n 4 -e 8.724080
N -t 39.000000 -n 5 -e 8.813120
N -t 40.000000 -n 0 -e 9.590960
N -t 40.000000 -n 1 -e 9.351920
N -t 40.000000 -n 2 -e 9.262880
N -t 40.000000 -n 3 -e 9.114480
N -t 40.000000 -n 4 -e 8.716080
N -t 40.000000 -n 5 -e 8.805120
N -t 41.000000 -n 0 -e 9.582960
N -t 41.000000 -n 1 -e 9.343920
N -t 41.000000 -n 2 -e 9.254880
N -t 41.000000 -n 3 -e 9.106480
N -t 41.000000 -n 4 -e 8.708080
N -t 41.000000 -n 5 -e 8.797120
s 41.330025000 _5_ MAC  --- 8 vectorbasedforward 50 [0 5000000 ffff0008 0] [energy 8.797120 ei 0.323 es 0.000 et 0.640 er 0.240] ------- [5:0 5:255 0 0] 
r 41.396691667 _4_ MAC  --- 8 vectorbasedforward 50 [0 5000000 ffff0008 0] [energy 8.675226 ei 0.325 es 0.000 et 0.640 er 0.360] ------- [5:0 5:255 0 0] 
N -t 42.000000 -n 0 -e 9.574960
N -t 42.000000 -n 1 -e 9.335920
N -t 42.000000 -n 2 -e 9.246880
N -t 42.000000 -n 3 -e 9.098480
N -t 42.000000 -n 4 -e 8.670400
N -t 42.000000 -n 5 -e 8.709440
s 42.251338336 _4_ MAC  --- 8 vectorbasedforward 50 [0 4000000 ffff0008 0] [energy 8.670400 ei 0.330 es 0.000 et 0.640 er 0.360] ------- [5:0 5:255 0 0] 
r 42.318005003 _5_ MAC  --- 8 vectorbasedforward 50 [0 4000000 ffff0008 0] [energy 8.677216 ei 0.333 es 0.000 et 0.720 er 0.270] ------- [5:0 5:255 0 0] 
N -t 43.000000 -n 0 -e 9.566960
N -t 43.000000 -n 1 -e 9.327920
N -t 43.000000 -n 2 -e 9.238880
N -t 43.000000 -n 3 -e 9.060800
N -t 43.000000 -n 4 -e 8.582720
N -t 43.000000 -n 5 -e 8.671760
N -t 44.000000 -n 0 -e 9.558960
N -t 44.000000 -n 1 -e 9.319920
N -t 44.000000 -n 2 -e 9.230880
N -t 44.000000 -n 3 -e 9.052800
N -t 44.000000 -n 4 -e 8.574720
N -t 44.000000 -n 5 -e 8.663760
N -t 45.000000 -n 0 -e 9.550960
N -t 45.000000 -n 1 -e 9.311920
N -t 45.000000 -n 2 -e 9.222880
N -t 45.000000 -n 3 -e 9.044800
N -t 45.000000 -n 4 -e 8.566720
N -t 45.000000 -n 5 -e 8.655760
N -t 46.000000 -n 0 -e 9.542960
N -t 46.000000 -n 1 -e 9.303920
N -t 46.000000 -n 2 -e 9.214880
N -t 46.000000 -n 3 -e 9.036800
N -t 46.000000 -n 4 -e 8.558720
N -t 46.000000 -n 5 -e 8.647760
s 46.330025000 _5_ MAC  --- 9 vectorbasedforward 50 [0 5000000 ffff0008 0] [energy 8.647760 ei 0.362 es 0.000 et 0.720 er 0.270] ------- [5:0 5:255 0 0] 
r 46.396691667 _4_ MAC  --- 9 vectorbasedforward 50 [0 5000000 ffff0008 0] [energy 8.525866 ei 0.364 es 0.000 et 0.720 er 0.390] ------- [5:0 5:255 0 0] 
N -t 47.000000 -n 0 -e 9.534960
N -t 47.000000 -n 1 -e 9.295920
N -t 47.000000 -n 2 -e 9.206880
N -t 47.000000 -n 3 -e 9.028800
N -t 47.000000 -n 4 -e 8.521040
N -t 47.000000 -n 5 -e 8.560080
s 47.251338336 _4_ MAC  --- 9 vectorbasedforward 50 [0 4000000 ffff0008 0] [energy 8.521040 ei 0.369 es 0.000 et 0.720 er 0.390] ------- [5:0 5:255 0 0] 
r 47.318005003 _5_ MAC  --- 9 vectorbasedforward 50 [0 4000000 ffff0008 0] [energy 8.527856 ei 0.372 es 0.000 et 0.800 er 0.300] ------- [5:0 5:255 0 0] 
r 47.339064406 _3_ MAC  --- 9 vectorbasedforward 50 [0 4000000 ffff0008 0] [energy 8.996407 ei 0.374 es 0.000 et 0.240 er 0.390] ------- [5:0 5:255 0 0] 
N -t 48.000000 -n 0 -e 9.526960
N -t 48.000000 -n 1 -e 9.287920
N -t 48.000000 -n 2 -e 9.198880
N -t 48.000000 -n 3 -e 8.991120
N -t 48.000000 -n 4 -e 8.433360
N -t 48.000000 -n 5 -e 8.522400
s 48.047815992 _3_ MAC  --- 9 vectorbasedforward 50 [0 3000000 ffff0008 0] [energy 8.991120 ei 0.379 es 0.000 et 0.240 er 0.390] ------- [5:0 5:255 0 0] 
r 48.121149326 _2_ MAC  --- 9 vectorbasedforward 50 [0 3000000 ffff0008 0] [energy 9.168231 ei 0.382 es 0.000 et 0.240 er 0.210] ------- [5:0 5:255 0 0] 
r 48.135542062 _4_ MAC  --- 9 vectorbasedforward 50 [0 3000000 ffff0008 0] [energy 8.402596 ei 0.377 es 0.000 et 0.800 er 0.420] ------- [5:0 5:255 0 0] 
N -t 49.000000 -n 0 -e 9.518960
N -t 49.000000 -n 1 -e 9.279920
N -t 49.000000 -n 2 -e 9.161200
N -t 49.000000 -n 3 -e 8.903440
N -t 49.000000 -n 4 -e 8.395680
N -t 49.000000 -n 5 -e 8.514400
s 49.040878299 _2_ MAC  --- 9 vectorbasedforward 50 [0 2000000 ffff0008 0] [energy 9.161200 ei 0.389 es 0.000 et 0.240 er 0.210] ------- [5:0 5:255 0 0] 
r 49.128604369 _1_ MAC  --- 9 vectorbasedforward 50 [0 2000000 ffff0008 0] [energy 9.249211 ei 0.391 es 0.000 et 0.240 er 0.120] ------- [5:0 5:255 0 0] 
s 49.703702583 _1_ MAC  --- 9 vectorbasedforward 50 [0 1000000 ffff0008 0] [energy 9.249211 ei 0.391 es 0.000 et 0.240 er 0.120] ------- [5:0 5:255 0 0] 
r 49.791428654 _2_ MAC  --- 9 vectorbasedforward 50 [0 1000000 ffff0008 0] [energy 9.045509 ei 0.394 es 0.000 et 0.320 er 0.240] ------- [5:0 5:255 0 0] 
r 49.797035917 _0_ MAC  --- 9 vectorbasedforward 50 [0 1000000 ffff0008 0] [energy 9.482904 ei 0.397 es 0.000 et 0.000 er 0.120] ------- [5:0 5:255 0 0] 
N -t 50.000000 -n 0 -e 9.481280
N -t 50.000000 -n 1 -e 9.162560
N -t 50.000000 -n 2 -e 9.043840
N -t 50.000000 -n 3 -e 8.865760
N -t 50.000000 -n 4 -e 8.387680
N -t 50.000000 -n 5 -e 8.506400
N -t 51.000000 -n 0 -e 9.473280
N -t 51.000000 -n 1 -e 9.154560
N -t 51.000000 -n 2 -e 9.035840
N -t 51.000000 -n 3 -e 8.857760
N -t 51.000000 -n 4 -e 8.379680
N -t 51.000000 -n 5 -e 8.498400
s 51.330025000 _5_ MAC  --- 10 vectorbasedforward 50 [0 5000000 ffff0008 0] [energy 8.498400 ei 0.402 es 0.000 et 0.800 er 0.300] ------- [5:0 5:255 0 0] 
r 51.396691667 _4_ MAC  --- 10 vectorbasedforward 50 [0 5000000 ffff0008 0] [energy 8.346826 ei 0.403 es 0.000 et 0.800 er 0.450] ------- [5:0 5:255 0 0] 
N -t 52.000000 -n 0 -e 9.465280
N -t 52.000000 -n 1 -e 9.146560
N -t 52.000000 -n 2 -e 9.027840
N -t 52.000000 -n 3 -e 8.849760
N -t 52.000000 -n 4 -e 8.342000
N -t 52.000000 -n 5 -e 8.410720
s 52.251338336 _4_ MAC  --- 10 vectorbasedforward 50 [0 4000000 ffff0008 0] [energy 8.342000 ei 0.408 es 0.000 et 0.800 er 0.450] ------- [5:0 5:255 0 0] 
r 52.318005003 _5_ MAC  --- 10 vectorbasedforward 50 [0 4000000 ffff0008 0] [energy 8.378496 ei 0.412 es 0.000 et 0.880 er 0.330] ------- [5:0 5:255 0 0] 
r 52.339064406 _3_ MAC  --- 10 vectorbasedforward 50 [0 4000000 ffff0008 0] [energy 8.817367 ei 0.413 es 0.000 et 0.320 er 0.450] ------- [5:0 5:255 0 0] 
N -t 53.000000 -n 0 -e 9.457280
N -t 53.000000 -n 1 -e 9.138560
N -t 53.000000 -n 2 -e 9.019840
N -t 53.000000 -n 3 -e 8.812080
N -t 53.000000 -n 4 -e 8.254320
N -t 53.000000 -n 5 -e 8.373040
s 53.047815992 _3_ MAC  --- 10 vectorbasedforward 50 [0 3000000 ffff0008 0] [energy 8.812080 ei 0.418 es 0.000 et 0.320 er 0.450] ------- [5:0 5:255 0 0] 
r 53.121149326 _2_ MAC  --- 10 vectorbasedforward 50 [0 3000000 ffff0008 0] [energy 8.989191 ei 0.421 es 0.000 et 0.320 er 0.270] ------- [5:0 5:255 0 0] 
r 53.135542062 _4_ MAC  --- 10 vectorbasedforward 50 [0 3000000 ffff0008 0] [energy 8.223556 ei 0.416 es 0.000 et 0.880 er 0.480] ------- [5:0 5:255 0 0] 
N -t 54.000000 -n 0 -e 9.449280
N -t 54.000000 -n 1 -e 9.130560
N -t 54.000000 -n 2 -e 8.982160
N -t 54.000000 -n 3 -e 8.724400
N -t 54.000000 -n 4 -e 8.216640
N -t 54.000000 -n 5 -e 8.365040
s 54.040878299 _2_ MAC  --- 10 vectorbasedforward 50 [0 2000000 ffff0008 0] [energy 8.982160 ei 0.428 es 0.000 et 0.320 er 0.270] ------- [5:0 5:255 0 0] 
r 54.114211632 _3_ MAC  --- 10 vectorbasedforward 50 [0 2000000 ffff0008 0] [energy 8.693806 ei 0.426 es 0.000 et 0.400 er 0.480] ------- [5:0 5:255 0 0] 
r 54.128604369 _1_ MAC  --- 10 vectorbasedforward 50 [0 2000000 ffff0008 0] [energy 9.099851 ei 0.430 es 0.000 et 0.320 er 0.150] ------- [5:0 5:255 0 0] 
s 54.703702583 _1_ MAC  --- 10 vectorbasedforward 50 [0 1000000 ffff0008 0] [energy 9.099851 ei 0.430 es 0.000 et 0.320 er 0.150] ------- [5:0 5:255 0 0] 
r 54.791428654 _2_ MAC  --- 10 vectorbasedforward 50 [0 1000000 ffff0008 0] [energy 8.866469 ei 0.434 es 0.000 et 0.400 er 0.300] ------- [5:0 5:255 0 0] 
r 54.797035917 _0_ MAC  --- 10 vectorbasedforward 50 [0 1000000 ffff0008 0] [energy 9.413224 ei 0.437 es 0.000 et 0.000 er 0.150] ------- [5:0 5:255 0 0] 
N -t 55.000000 -n 0 -e 9.411600
N -t 55.000000 -n 1 -e 9.013200
N -t 55.000000 -n 2 -e 8.864800
N -t 55.000000 -n 3 -e 8.686720
N -t 55.000000 -n 4 -e 8.208640
N -t 55.000000 -n 5 -e 8.357040
N -t 56.000000 -n 0 -e 9.403600
N -t 56.000000 -n 1 -e 9.005200
N -t 56.000000 -n 2 -e 8.856800
N -t 56.000000 -n 3 -e 8.678720
N -t 56.000000 -n 4 -e 8.200640
N -t 56.000000 -n 5 -e 8.349040
s 56.330025000 _5_ MAC  --- 11 vectorbasedforward 50 [0 5000000 ffff0008 0] [energy 8.349040 ei 0.441 es 0.000 et 0.880 er 0.330] ------- [5:0 5:255 0 0] 
r 56.396691667 _4_ MAC  --- 11 vectorbasedforward 50 [0 5000000 ffff0008 0] [energy 8.167786 ei 0.442 es 0.000 et 0.880 er 0.510] ------- [5:0 5:255 0 0] 
N -t 57.000000 -n 0 -e 9.395600
N -t 57.000000 -n 1 -e 8.997200
N -t 57.000000 -n 2 -e 8.848800
N -t 57.000000 -n 3 -e 8.670720
N -t 57.000000 -n 4 -e 8.162960
N -t 57.000000 -n 5 -e 8.261360
s 57.251338336 _4_ MAC  --- 11 vectorbasedforward 50 [0 4000000 ffff0008 0] [energy 8.162960 ei 0.447 es 0.000 et 0.880 er 0.510] ------- [5:0 5:255 0 0] 
r 57.318005003 _5_ MAC  --- 11 vectorbasedforward 50 [0 4000000 ffff0008 0] [energy 8.229136 ei 0.451 es 0.000 et 0.960 er 0.360] ------- [5:0 5:255 0 0] 
r 57.339064406 _3_ MAC  --- 11 vectorbasedforward 50 [0 4000000 ffff0008 0] [energy 8.638327 ei 0.452 es 0.000 et 0.400 er 0.510] ------- [5:0 5:255 0 0] 
N -t 58.000000 -n 0 -e 9.387600
N -t 58.000000 -n 1 -e 8.989200
N -t 58.000000 -n 2 -e 8.840800
N -t 58.000000 -n 3 -e 8.633040
N -t 58.000000 -n 4 -e 8.075280
N -t 58.000000 -n 5 -e 8.223680
s 58.047815992 _3_ MAC  --- 11 vectorbasedforward 50 [0 3000000 ffff0008 0] [energy 8.633040 ei 0.457 es 0.000 et 0.400 er 0.510] ------- [5:0 5:255 0 0] 
r 58.121149326 _2_ MAC  --- 11 vectorbasedforward 50 [0 3000000 ffff0008 0] [energy 8.810151 ei 0.460 es 0.000 et 0.400 er 0.330] ------- [5:0 5:255 0 0] 
r 58.135542062 _4_ MAC  --- 11 vectorbasedforward 50 [0 3000000 ffff0008 0] [energy 8.044516 ei 0.455 es 0.000 et 0.960 er 0.540] ------- [5:0 5:255 0 0] 
N -t 59.000000 -n 0 -e 9.379600
N -t 59.000000 -n 1 -e 8.981200
N -t 59.000000 -n 2 -e 8.803120
N -t 59.000000 -n 3 -e 8.545360
N -t 59.000000 -n 4 -e 8.037600
N -t 59.000000 -n 5 -e 8.215680
s 59.040878299 _2_ MAC  --- 11 vectorbasedforward 50 [0 2000000 ffff0008 0] [energy 8.803120 ei 0.467 es 0.000 et 0.400 er 0.330] ------- [5:0 5:255 0 0] 
r 59.114211632 _3_ MAC  --- 11 vectorbasedforward 50 [0 2000000 ffff0008 0] [energy 8.514766 ei 0.465 es 0.000 et 0.480 er 0.540] ------- [5:0 5:255 0 0] 
r 59.128604369 _1_ MAC  --- 11 vectorbasedforward 50 [0 2000000 ffff0008 0] [energy 8.950491 ei 0.470 es 0.000 et 0.400 er 0.180] ------- [5:0 5:255 0 0] 
s 59.703702583 _1_ MAC  --- 11 vectorbasedforward 50 [0 1000000 ffff0008 0] [energy 8.950491 ei 0.470 es 0.000 et 0.400 er 0.180] ------- [5:0 5:255 0 0] 
r 59.791428654 _2_ MAC  --- 11 vectorbasedforward 50 [0 1000000 ffff0008 0] [energy 8.687429 ei 0.473 es 0.000 et 0.480 er 0.360] ------- [5:0 5:255 0 0] 
r 59.797035917 _0_ MAC  --- 11 vectorbasedforward 50 [0 1000000 ffff0008 0] [energy 9.343544 ei 0.476 es 0.000 et 0.000 er 0.180] ------- [5:0 5:255 0 0] 
N -t 60.000000 -n 0 -e 9.341920
N -t 60.000000 -n 1 -e 8.863840
N -t 60.000000 -n 2 -e 8.685760
N -t 60.000000 -n 3 -e 8.507680
N -t 60.000000 -n 4 -e 8.029600
N -t 60.000000 -n 5 -e 8.207680
N -t 61.000000 -n 0 -e 9.333920
N -t 61.000000 -n 1 -e 8.855840
N -t 61.000000 -n 2 -e 8.677760
N -t 61.000000 -n 3 -e 8.499680
N -t 61.000000 -n 4 -e 8.021600
N -t 61.000000 -n 5 -e 8.199680
s 61.330025000 _5_ MAC  --- 12 vectorbasedforward 50 [0 5000000 ffff0008 0] [energy 8.199680 ei 0.480 es 0.000 et 0.960 er 0.360] ------- [5:0 5:255 0 0] 
r 61.396691667 _4_ MAC  --- 12 vectorbasedforward 50 [0 5000000 ffff0008 0] [energy 7.988746 ei 0.481 es 0.000 et 0.960 er 0.570] ------- [5:0 5:255 0 0] 
N -t 62.000000 -n 0 -e 9.325920
N -t 62.000000 -n 1 -e 8.847840
N -t 62.000000 -n 2 -e 8.669760
N -t 62.000000 -n 3 -e 8.491680
N -t 62.000000 -n 4 -e 7.983920
N -t 62.000000 -n 5 -e 8.112000
s 62.251338336 _4_ MAC  --- 12 vectorbasedforward 50 [0 4000000 ffff0008 0] [energy 7.983920 ei 0.486 es 0.000 et 0.960 er 0.570] ------- [5:0 5:255 0 0] 
r 62.318005003 _5_ MAC  --- 12 vectorbasedforward 50 [0 4000000 ffff0008 0] [energy 8.079776 ei 0.490 es 0.000 et 1.040 er 0.390] ------- [5:0 5:255 0 0] 
N -t 63.000000 -n 0 -e 9.317920
N -t 63.000000 -n 1 -e 8.839840
N -t 63.000000 -n 2 -e 8.661760
N -t 63.000000 -n 3 -e 8.454000
N -t 63.000000 -n 4 -e 7.896240
N -t 63.000000 -n 5 -e 8.074320
N -t 64.000000 -n 0 -e 9.309920
N -t 64.000000 -n 1 -e 8.831840
N -t 64.000000 -n 2 -e 8.653760
N -t 64.000000 -n 3 -e 8.446000
N -t 64.000000 -n 4 -e 7.888240
N -t 64.000000 -n 5 -e 8.066320
N -t 65.000000 -n 0 -e 9.301920
N -t 65.000000 -n 1 -e 8.823840
N -t 65.000000 -n 2 -e 8.645760
N -t 65.000000 -n 3 -e 8.438000
N -t 65.000000 -n 4 -e 7.880240
N -t 65.000000 -n 5 -e 8.058320
N -t 66.000000 -n 0 -e 9.293920
N -t 66.000000 -n 1 -e 8.815840
N -t 66.000000 -n 2 -e 8.637760
N -t 66.000000 -n 3 -e 8.430000
N -t 66.000000 -n 4 -e 7.872240
N -t 66.000000 -n 5 -e 8.050320
s 66.330025000 _5_ MAC  --- 13 vectorbasedforward 50 [0 5000000 ffff0008 0] [energy 8.050320 ei 0.520 es 0.000 et 1.040 er 0.390] ------- [5:0 5:255 0 0] 
r 66.396691667 _4_ MAC  --- 13 vectorbasedforward 50 [0 5000000 ffff0008 0] [energy 7.839386 ei 0.521 es 0.000 et 1.040 er 0.600] ------- [5:0 5:255 0 0] 
N -t 67.000000 -n 0 -e 9.285920
N -t 67.000000 -n 1 -e 8.807840
N -t 67.000000 -n 2 -e 8.629760
N -t 67.000000 -n 3 -e 8.422000
N -t 67.000000 -n 4 -e 7.834560
N -t 67.000000 -n 5 -e 7.962640