N -t 1.000000 -n 0 -e 9.992000
N -t 1.000000 -n 1 -e 9.992000
N -t 1.000000 -n 2 -e 9.992000
N -t 1.000000 -n 3 -e 9.992000
N -t 1.000000 -n 4 -e 9.992000
N -t 1.000000 -n 5 -e 9.992000
N -t 1.000000 -n 6 -e 9.992000
r -t 1.330000000 -Hs 6 -Hd -2 -Ni 6 -Nx 130.00 -Ny 0.00 -Nz 0.00 -Ne 9.992000 -Nl RTR -Nw --- -Ma 0 -Md 0 -Ms 0 -Mt 0 -Is 6.0 -Id 6.255 -It vectorbasedforward -Il 50 -If 0 -Ii 0 -Iv 0 
r -t 1.399863333 -Hs 5 -Hd -1 -Ni 5 -Nx 210.00 -Ny 0.00 -Nz 0.00 -Ne 9.970173 -Nl RTR -Nw --- -Ma 0 -Md 6000000 -Ms ffff0008 -Mt 0 -Is 6.0 -Id 6.255 -It vectorbasedforward -Il 50 -If 0 -Ii 0 -Iv 0 
r -t 1.456396667 -Hs 6 -Hd 6 -Ni 6 -Nx 130.00 -Ny 0.00 -Nz 0.00 -Ne 9.953146 -Nl RTR -Nw --- -Ma 0 -Md 0 -Ms 0 -Mt 0 -Is 0.0 -Id 0.0 -It UW-Aloha-ACK -Il 53 -If 0 -Ii 0 -Iv 0 
r -t 1.928576482 -Hs 4 -Hd -1 -Ni 4 -Nx 240.00 -Ny 49.00 -Nz 0.00 -Ne 9.963569 -Nl RTR -Nw --- -Ma 0 -Md 5000000 -Ms ffff0008 -Mt 0 -Is 6.0 -Id 6.255 -It vectorbasedforward -Il 50 -If 0 -Ii 0 -Iv 0 
r -t 1.943606929 -Hs 6 -Hd -1 -Ni 6 -Nx 130.00 -Ny 0.00 -Nz 0.00 -Ne 9.937021 -Nl RTR -Nw --- -Ma 0 -Md 5000000 -Ms ffff0008 -Mt 0 -Is 6.0 -Id 6.255 -It vectorbasedforward -Il 50 -If 0 -Ii 0 -Iv 0 
r -t 1.950822933 -Hs 3 -Hd -1 -Ni 3 -Nx 290.00 -Ny -43.00 -Nz 0.00 -Ne 9.963391 -Nl RTR -Nw --- -Ma 0 -Md 5000000 -Ms ffff0008 -Mt 0 -Is 6.0 -Id 6.255 -It vectorbasedforward -Il 50 -If 0 -Ii 0 -Iv 0 
r -t 1.970079368 -Hs 5 -Hd 5 -Ni 5 -Nx 210.00 -Ny 0.00 -Nz 0.00 -Ne 9.930434 -Nl RTR -Nw --- -Ma 0 -Md 0 -Ms 0 -Mt 0 -Is 0.0 -Id 0.0 -It UW-Aloha-ACK -Il 53 -If 0 -Ii 0 -Iv 0 
N -t 2.000000 -n 0 -e 9.984000
N -t 2.000000 -n 1 -e 9.981626
N -t 2.000000 -n 2 -e 9.984000
N -t 2.000000 -n 3 -e 9.963023
N -t 2.000000 -n 4 -e 9.963023
N -t 2.000000 -n 5 -e 9.930195
N -t 2.000000 -n 6 -e 9.936569
r -t 2.014572270 -Hs 5 -Hd 5 -Ni 5 -Nx 210.00 -Ny 0.00 -Nz 0.00 -Ne 9.927704 -Nl RTR -Nw --- -Ma 0 -Md 0 -Ms 0 -Mt 0 -Is 0.0 -Id 0.0 -It UW-Aloha-ACK -Il 53 -If 0 -Ii 0 -Iv 0 
r -t 2.833346309 -Hs 2 -Hd -1 -Ni 2 -Nx 380.00 -Ny -40.00 -Nz 0.00 -Ne 9.956331 -Nl RTR -Nw --- -Ma 0 -Md 3000000 -Ms ffff0008 -Mt 0 -Is 6.0 -Id 6.255 -It vectorbasedforward -Il 50 -If 0 -Ii 0 -Iv 0 
r -t 2.833862322 -Hs 5 -Hd -1 -Ni 5 -Nx 210.00 -Ny 0.00 -Nz 0.00 -Ne 9.908922 -Nl RTR -Nw --- -Ma 0 -Md 3000000 -Ms ffff0008 -Mt 0 -Is 6.0 -Id 6.255 -It vectorbasedforward -Il 50 -If 0 -Ii 0 -Iv 0 
r -t 2.896579633 -Hs 3 -Hd 3 -Ni 3 -Nx 290.00 -Ny -43.00 -Nz 0.00 -Ne 9.920648 -Nl RTR -Nw --- -Ma 0 -Md 0 -Ms 0 -Mt 0 -Is 0.0 -Id 0.0 -It UW-Aloha-ACK -Il 53 -If 0 -Ii 0 -Iv 0 
N -t 3.000000 -n 0 -e 9.973626
N -t 3.000000 -n 1 -e 9.973626
N -t 3.000000 -n 2 -e 9.955023
N -t 3.000000 -n 3 -e 9.919820
N -t 3.000000 -n 4 -e 9.955023
N -t 3.000000 -n 5 -e 9.907592
N -t 3.000000 -n 6 -e 9.928569
N -t 4.000000 -n 0 -e 9.953269
N -t 4.000000 -n 1 -e 9.965626
N -t 4.000000 -n 2 -e 9.914195
N -t 4.000000 -n 3 -e 9.911820
N -t 4.000000 -n 4 -e 9.947023
N -t 4.000000 -n 5 -e 9.899592
N -t 4.000000 -n 6 -e 9.920569
r -t 4.016113145 -Hs 0 -Hd -1 -Ni 0 -Nx 415.00 -Ny 0.00 -Nz 0.00 -Ne 9.946869 -Nl RTR -Nw --- -Ma 0 -Md 2000000 -Ms ffff0008 -Mt 0 -Is 6.0 -Id 6.255 -It vectorbasedforward -Il 50 -If 0 -Ii 0 -Iv 0 
r -t 4.016113145 -Hs 0 -Hd -2 -Ni 0 -Nx 415.00 -Ny 0.00 -Nz 0.00 -Ne 9.946869 -Nl RTR -Nw --- -Ma 0 -Md 0 -Ms 0 -Mt 0 -Is 0.0 -Id 0.255 -It vectorbasedforward -Il 0 -If 0 -Ii 0 -Iv 32 
r -t 4.016113145 -Hs 0 -Hd -2 -Ni 0 -Nx 415.00 -Ny 0.00 -Nz 0.00 -Ne 9.946869 -Nl RTR -Nw --- -Ma 0 -Md 0 -Ms 0 -Mt 0 -Is 0.0 -Id 0.255 -It vectorbasedforward -Il 0 -If 0 -Ii 1 -Iv 32 
r -t 4.040712649 -Hs 3 -Hd -1 -Ni 3 -Nx 290.00 -Ny -43.00 -Nz 0.00 -Ne 9.899267 -Nl RTR -Nw --- -Ma 0 -Md 2000000 -Ms ffff0008 -Mt 0 -Is 6.0 -Id 6.255 -It vectorbasedforward -Il 50 -If 0 -Ii 0 -Iv 0 
r -t 4.054746964 -Hs 2 -Hd 2 -Ni 2 -Nx 380.00 -Ny -40.00 -Nz 0.00 -Ne 9.911383 -Nl RTR -Nw --- -Ma 0 -Md 0 -Ms 0 -Mt 0 -Is 0.0 -Id 0.0 -It UW-Aloha-ACK -Il 53 -If 0 -Ii 0 -Iv 0 
r -t 4.834111275 -Hs 5 -Hd -1 -Ni 5 -Nx 210.00 -Ny 0.00 -Nz 0.00 -Ne 9.880691 -Nl RTR -Nw --- -Ma 0 -Md 4000000 -Ms ffff0008 -Mt 0 -Is 6.0 -Id 6.255 -It vectorbasedforward -Il 50 -If 0 -Ii 0 -Iv 0 
r -t 4.855808389 -Hs 1 -Hd -1 -Ni 1 -Nx 330.00 -Ny 49.00 -Nz 0.00 -Ne 9.937777 -Nl RTR -Nw --- -Ma 0 -Md 4000000 -Ms ffff0008 -Mt 0 -Is 6.0 -Id 6.255 -It vectorbasedforward -Il 50 -If 0 -Ii 0 -Iv 0 
r -t 4.919008389 -Hs 4 -Hd 4 -Ni 4 -Nx 240.00 -Ny 49.00 -Nz 0.00 -Ne 9.904469 -Nl RTR -Nw --- -Ma 0 -Md 0 -Ms 0 -Mt 0 -Is 0.0 -Id 0.0 -It UW-Aloha-ACK -Il 53 -If 0 -Ii 0 -Iv 0 
N -t 5.000000 -n 0 -e 9.936649
N -t 5.000000 -n 1 -e 9.936649
N -t 5.000000 -n 2 -e 9.903820
N -t 5.000000 -n 3 -e 9.891592
N -t 5.000000 -n 4 -e 9.903820
N -t 5.000000 -n 5 -e 9.879364
N -t 5.000000 -n 6 -e 9.912569
N -t 6.000000 -n 0 -e 9.928649
N -t 6.000000 -n 1 -e 9.928649
N -t 6.000000 -n 2 -e 9.895820
N -t 6.000000 -n 3 -e 9.883592
N -t 6.000000 -n 4 -e 9.895820
N -t 6.000000 -n 5 -e 9.871364
N -t 6.000000 -n 6 -e 9.904569
r -t 6.330000000 -Hs 6 -Hd -2 -Ni 6 -Nx 130.00 -Ny 0.00 -Nz 0.00 -Ne 9.904569 -Nl RTR -Nw --- -Ma 0 -Md 0 -Ms 0 -Mt 0 -Is 6.0 -Id 6.255 -It vectorbasedforward -Il 50 -If 0 -Ii 1 -Iv 0 
r -t 6.399863333 -Hs 5 -Hd 5 -Ni 5 -Nx 210.00 -Ny 0.00 -Nz 0.00 -Ne 9.849537 -Nl RTR -Nw --- -Ma 0 -Md 6000000 -Ms 8 -Mt 0 -Is 6.0 -Id 6.255 -It vectorbasedforward -Il 50 -If 0 -Ii 1 -Iv 0 
r -t 6.456396667 -Hs 6 -Hd 6 -Ni 6 -Nx 130.00 -Ny 0.00 -Nz 0.00 -Ne 9.865716 -Nl RTR -Nw --- -Ma 0 -Md 0 -Ms 0 -Mt 0 -Is 0.0 -Id 0.0 -It UW-Aloha-ACK -Il 53 -If 0 -Ii 0 -Iv 0 
r -t 6.649314514 -Hs 4 -Hd -1 -Ni 4 -Nx 240.00 -Ny 49.00 -Nz 0.00 -Ne 9.876024 -Nl RTR -Nw --- -Ma 0 -Md 1000000 -Ms ffff0008 -Mt 0 -Is 6.0 -Id 6.255 -It vectorbasedforward -Il 50 -If 0 -Ii 0 -Iv 0 
r -t 6.654722634 -Hs 0 -Hd -1 -Ni 0 -Nx 415.00 -Ny 0.00 -Nz 0.00 -Ne 9.904783 -Nl RTR -Nw --- -Ma 0 -Md 1000000 -Ms ffff0008 -Mt 0 -Is 6.0 -Id 6.255 -It vectorbasedforward -Il 50 -If 0 -Ii 0 -Iv 0 
r -t 6.723330755 -Hs 1 -Hd 1 -Ni 1 -Nx 330.00 -Ny 49.00 -Nz 0.00 -Ne 9.887660 -Nl RTR -Nw --- -Ma 0 -Md 0 -Ms 0 -Mt 0 -Is 0.0 -Id 0.0 -It UW-Aloha-ACK -Il 53 -If 0 -Ii 0 -Iv 0 
r -t 6.928576482 -Hs 4 -Hd 4 -Ni 4 -Nx 240.00 -Ny 49.00 -Nz 0.00 -Ne 9.855161 -Nl RTR -Nw --- -Ma 0 -Md 5000000 -Ms 8 -Mt 0 -Is 6.0 -Id 6.255 -It vectorbasedforward -Il 50 -If 0 -Ii 1 -Iv 0 
r -t 6.970079368 -Hs 5 -Hd 5 -Ni 5 -Nx 210.00 -Ny 0.00 -Nz 0.00 -Ne 9.809799 -Nl RTR -Nw --- -Ma 0 -Md 0 -Ms 0 -Mt 0 -Is 0.0 -Id 0.0 -It UW-Aloha-ACK -Il 53 -If 0 -Ii 0 -Iv 0 
N -t 7.000000 -n 0 -e 9.902046
N -t 7.000000 -n 1 -e 9.883072
N -t 7.000000 -n 2 -e 9.885446
N -t 7.000000 -n 3 -e 9.860990
N -t 7.000000 -n 4 -e 9.854615
N -t 7.000000 -n 5 -e 9.809559
N -t 7.000000 -n 6 -e 9.849139
N -t 8.000000 -n 0 -e 9.894046
N -t 8.000000 -n 1 -e 9.875072
N -t 8.000000 -n 2 -e 9.877446
N -t 8.000000 -n 3 -e 9.852990
N -t 8.000000 -n 4 -e 9.846615
N -t 8.000000 -n 5 -e 9.801559
N -t 8.000000 -n 6 -e 9.841139
N -t 9.000000 -n 0 -e 9.886046
N -t 9.000000 -n 1 -e 9.867072
N -t 9.000000 -n 2 -e 9.869446
N -t 9.000000 -n 3 -e 9.844990
N -t 9.000000 -n 4 -e 9.838615
N -t 9.000000 -n 5 -e 9.793559
N -t 9.000000 -n 6 -e 9.833139
r -t 9.360190254 -Hs 1 -Hd 1 -Ni 1 -Nx 330.00 -Ny 49.00 -Nz 0.00 -Ne 9.845562 -Nl RTR -Nw --- -Ma 0 -Md 4000000 -Ms 8 -Mt 0 -Is 6.0 -Id 6.255 -It vectorbasedforward -Il 50 -If 0 -Ii 1 -Iv 0 
r -t 9.423390254 -Hs 4 -Hd 4 -Ni 4 -Nx 240.00 -Ny 49.00 -Nz 0.00 -Ne 9.800026 -Nl RTR -Nw --- -Ma 0 -Md 0 -Ms 0 -Mt 0 -Is 0.0 -Id 0.0 -It UW-Aloha-ACK -Il 53 -If 0 -Ii 0 -Iv 0 
N -t 10.000000 -n 0 -e 9.875672
N -t 10.000000 -n 1 -e 9.840469
N -t 10.000000 -n 2 -e 9.861446
N -t 10.000000 -n 3 -e 9.836990
N -t 10.000000 -n 4 -e 9.795413
N -t 10.000000 -n 5 -e 9.773331
N -t 10.000000 -n 6 -e 9.825139
r -t 10.240224750 -Hs 0 -Hd 0 -Ni 0 -Nx 415.00 -Ny 0.00 -Nz 0.00 -Ne 9.855122 -Nl RTR -Nw --- -Ma 0 -Md 1000000 -Ms 8 -Mt 0 -Is 6.0 -Id 6.255 -It vectorbasedforward -Il 50 -If 0 -Ii 1 -Iv 0 
r -t 10.240224750 -Hs 0 -Hd -2 -Ni 0 -Nx 415.00 -Ny 0.00 -Nz 0.00 -Ne 9.855122 -Nl RTR -Nw --- -Ma 0 -Md 0 -Ms 0 -Mt 0 -Is 0.0 -Id 0.255 -It vectorbasedforward -Il 0 -If 0 -Ii 2 -Iv 32 
r -t 10.240224750 -Hs 0 -Hd -2 -Ni 0 -Nx 415.00 -Ny 0.00 -Nz 0.00 -Ne 9.855122 -Nl RTR -Nw --- -Ma 0 -Md 0 -Ms 0 -Mt 0 -Is 0.0 -Id 0.255 -It vectorbasedforward -Il 0 -If 0 -Ii 3 -Iv 32 
r -t 10.308832871 -Hs 1 -Hd 1 -Ni 1 -Nx 330.00 -Ny 49.00 -Nz 0.00 -Ne 9.802796 -Nl RTR -Nw --- -Ma 0 -Md 0 -Ms 0 -Mt 0 -Is 0.0 -Id 0.0 -It UW-Aloha-ACK -Il 53 -If 0 -Ii 0 -Iv 0 
N -t 11.000000 -n 0 -e 9.849069
N -t 11.000000 -n 1 -e 9.797267
N -t 11.000000 -n 2 -e 9.851072
N -t 11.000000 -n 3 -e 9.828990
N -t 11.000000 -n 4 -e 9.775185
N -t 11.000000 -n 5 -e 9.765331
N -t 11.000000 -n 6 -e 9.817139
r -t 11.330000000 -Hs 6 -Hd -2 -Ni 6 -Nx 130.00 -Ny 0.00 -Nz 0.00 -Ne 9.817139 -Nl RTR -Nw --- -Ma 0 -Md 0 -Ms 0 -Mt 0 -Is 6.0 -Id 6.255 -It vectorbasedforward -Il 50 -If 0 -Ii 2 -Iv 0 
r -t 11.990137552 -Hs 5 -Hd 5 -Ni 5 -Nx 210.00 -Ny 0.00 -Nz 0.00 -Ne 9.738782 -Nl RTR -Nw --- -Ma 0 -Md 6000000 -Ms 8 -Mt 0 -Is 6.0 -Id 6.255 -It vectorbasedforward -Il 50 -If 0 -Ii 2 -Iv 0 
N -t 12.000000 -n 0 -e 9.841069
N -t 12.000000 -n 1 -e 9.789267
N -t 12.000000 -n 2 -e 9.843072
N -t 12.000000 -n 3 -e 9.820990
N -t 12.000000 -n 4 -e 9.767185
N -t 12.000000 -n 5 -e 9.738728
N -t 12.000000 -n 6 -e 9.776310
r -t 12.046670885 -Hs 6 -Hd 6 -Ni 6 -Nx 130.00 -Ny 0.00 -Nz 0.00 -Ne 9.773563 -Nl RTR -Nw --- -Ma 0 -Md 0 -Ms 0 -Mt 0 -Is 0.0 -Id 0.0 -It UW-Aloha-ACK -Il 53 -If 0 -Ii 0 -Iv 0 
r -t 12.518850700 -Hs 4 -Hd 4 -Ni 4 -Nx 240.00 -Ny 49.00 -Nz 0.00 -Ne 9.742031 -Nl RTR -Nw --- -Ma 0 -Md 5000000 -Ms 8 -Mt 0 -Is 6.0 -Id 6.255 -It vectorbasedforward -Il 50 -If 0 -Ii 2 -Iv 0 
r -t 12.560353587 -Hs 5 -Hd 5 -Ni 5 -Nx 210.00 -Ny 0.00 -Nz 0.00 -Ne 9.699043 -Nl RTR -Nw --- -Ma 0 -Md 0 -Ms 0 -Mt 0 -Is 0.0 -Id 0.0 -It UW-Aloha-ACK -Il 53 -If 0 -Ii 0 -Iv 0 
N -t 13.000000 -n 0 -e 9.833069
N -t 13.000000 -n 1 -e 9.778892
N -t 13.000000 -n 2 -e 9.835072
N -t 13.000000 -n 3 -e 9.798387
N -t 13.000000 -n 4 -e 9.738208
N -t 13.000000 -n 5 -e 9.695526
N -t 13.000000 -n 6 -e 9.753708
N -t 14.000000 -n 0 -e 9.825069
N -t 14.000000 -n 1 -e 9.770892
N -t 14.000000 -n 2 -e 9.827072
N -t 14.000000 -n 3 -e 9.790387
N -t 14.000000 -n 4 -e 9.730208
N -t 14.000000 -n 5 -e 9.687526
N -t 14.000000 -n 6 -e 9.745708
N -t 15.000000 -n 0 -e 9.817069
N -t 15.000000 -n 1 -e 9.750664
N -t 15.000000 -n 2 -e 9.819072
N -t 15.000000 -n 3 -e 9.782387
N -t 15.000000 -n 4 -e 9.689380
N -t 15.000000 -n 5 -e 9.667298
N -t 15.000000 -n 6 -e 9.737708
N -t 16.000000 -n 0 -e 9.809069
N -t 16.000000 -n 1 -e 9.742664
N -t 16.000000 -n 2 -e 9.811072
N -t 16.000000 -n 3 -e 9.774387
N -t 16.000000 -n 4 -e 9.681380
N -t 16.000000 -n 5 -e 9.659298
N -t 16.000000 -n 6 -e 9.729708
r -t 16.330000000 -Hs 6 -Hd -2 -Ni 6 -Nx 130.00 -Ny 0.00 -Nz 0.00 -Ne 9.729708 -Nl RTR -Nw --- -Ma 0 -Md 0 -Ms 0 -Mt 0 -Is 6.0 -Id 6.255 -It vectorbasedforward -Il 50 -If 0 -Ii 3 -Iv 0 
r -t 16.399863333 -Hs 5 -Hd 5 -Ni 5 -Nx 210.00 -Ny 0.00 -Nz 0.00 -Ne 9.637471 -Nl RTR -Nw --- -Ma 0 -Md 6000000 -Ms 8 -Mt 0 -Is 6.0 -Id 6.255 -It vectorbasedforward -Il 50 -If 0 -Ii 3 -Iv 0 
r -t 16.456396667 -Hs 6 -Hd 6 -Ni 6 -Nx 130.00 -Ny 0.00 -Nz 0.00 -Ne 9.690854 -Nl RTR -Nw --- -Ma 0 -Md 0 -Ms 0 -Mt 0 -Is 0.0 -Id 0.0 -It UW-Aloha-ACK -Il 53 -If 0 -Ii 0 -Iv 0 
r -t 16.928576482 -Hs 4 -Hd 4 -Ni 4 -Nx 240.00 -Ny 49.00 -Nz 0.00 -Ne 9.652949 -Nl RTR -Nw --- -Ma 0 -Md 5000000 -Ms 8 -Mt 0 -Is 6.0 -Id 6.255 -It vectorbasedforward -Il 50 -If 0 -Ii 3 -Iv 0 
r -t 16.970079368 -Hs 5 -Hd 5 -Ni 5 -Nx 210.00 -Ny 0.00 -Nz 0.00 -Ne 9.597732 -Nl RTR -Nw --- -Ma 0 -Md 0 -Ms 0 -Mt 0 -Is 0.0 -Id 0.0 -It UW-Aloha-ACK -Il 53 -If 0 -Ii 0 -Iv 0 
N -t 17.000000 -n 0 -e 9.801069
N -t 17.000000 -n 1 -e 9.732290
N -t 17.000000 -n 2 -e 9.803072
N -t 17.000000 -n 3 -e 9.751785
N -t 17.000000 -n 4 -e 9.652403
N -t 17.000000 -n 5 -e 9.597492
N -t 17.000000 -n 6 -e 9.674277
r -t 17.895650002 -Hs 1 -Hd 1 -Ni 1 -Nx 330.00 -Ny 49.00 -Nz 0.00 -Ne 9.706496 -Nl RTR -Nw --- -Ma 0 -Md 4000000 -Ms 8 -Mt 0 -Is 6.0 -Id 6.255 -It vectorbasedforward -Il 50 -If 0 -Ii 2 -Iv 0 
r -t 17.958850002 -Hs 4 -Hd 4 -Ni 4 -Nx 240.00 -Ny 49.00 -Nz 0.00 -Ne 9.609529 -Nl RTR -Nw --- -Ma 0 -Md 0 -Ms 0 -Mt 0 -Is 0.0 -Id 0.0 -It UW-Aloha-ACK -Il 53 -If 0 -Ii 0 -Iv 0 
N -t 18.000000 -n 0 -e 9.790695
N -t 18.000000 -n 1 -e 9.705687
N -t 18.000000 -n 2 -e 9.795072
N -t 18.000000 -n 3 -e 9.743785
N -t 18.000000 -n 4 -e 9.609200
N -t 18.000000 -n 5 -e 9.577264
N -t 18.000000 -n 6 -e 9.666277
r -t 18.298792429 -Hs 1 -Hd 1 -Ni 1 -Nx 330.00 -Ny 49.00 -Nz 0.00 -Ne 9.684669 -Nl RTR -Nw --- -Ma 0 -Md 4000000 -Ms 8 -Mt 0 -Is 6.0 -Id 6.255 -It vectorbasedforward -Il 50 -If 0 -Ii 3 -Iv 0 
r -t 18.361992429 -Hs 4 -Hd 4 -Ni 4 -Nx 240.00 -Ny 49.00 -Nz 0.00 -Ne 9.571102 -Nl RTR -Nw --- -Ma 0 -Md 0 -Ms 0 -Mt 0 -Is 0.0 -Id 0.0 -It UW-Aloha-ACK -Il 53 -If 0 -Ii 0 -Iv 0 
r -t 18.775684498 -Hs 0 -Hd 0 -Ni 0 -Nx 415.00 -Ny 0.00 -Nz 0.00 -Ne 9.763487 -Nl RTR -Nw --- -Ma 0 -Md 1000000 -Ms 8 -Mt 0 -Is 6.0 -Id 6.255 -It vectorbasedforward -Il 50 -If 0 -Ii 2 -Iv 0 
r -t 18.775684498 -Hs 0 -Hd -2 -Ni 0 -Nx 415.00 -Ny 0.00 -Nz 0.00 -Ne 9.763487 -Nl RTR -Nw --- -Ma 0 -Md 0 -Ms 0 -Mt 0 -Is 0.0 -Id 0.255 -It vectorbasedforward -Il 0 -If 0 -Ii 4 -Iv 32 
r -t 18.775684498 -Hs 0 -Hd -2 -Ni 0 -Nx 415.00 -Ny 0.00 -Nz 0.00 -Ne 9.763487 -Nl RTR -Nw --- -Ma 0 -Md 0 -Ms 0 -Mt 0 -Is 0.0 -Id 0.255 -It vectorbasedforward -Il 0 -If 0 -Ii 5 -Iv 32 
r -t 18.844292618 -Hs 1 -Hd 1 -Ni 1 -Nx 330.00 -Ny 49.00 -Nz 0.00 -Ne 9.645128 -Nl RTR -Nw --- -Ma 0 -Md 0 -Ms 0 -Mt 0 -Is 0.0 -Id 0.0 -It UW-Aloha-ACK -Il 53 -If 0 -Ii 0 -Iv 0 
N -t 19.000000 -n 0 -e 9.761718
N -t 19.000000 -n 1 -e 9.643882
N -t 19.000000 -n 2 -e 9.784697
N -t 19.000000 -n 3 -e 9.735785
N -t 19.000000 -n 4 -e 9.553769
N -t 19.000000 -n 5 -e 9.557036
N -t 19.000000 -n 6 -e 9.658277
r -t 19.932770560 -Hs 0 -Hd 0 -Ni 0 -Nx 415.00 -Ny 0.00 -Nz 0.00 -Ne 9.735628 -Nl RTR -Nw --- -Ma 0 -Md 1000000 -Ms 8 -Mt 0 -Is 6.0 -Id 6.255 -It vectorbasedforward -Il 50 -If 0 -Ii 3 -Iv 0 
r -t 19.932770560 -Hs 0 -Hd -2 -Ni 0 -Nx 415.00 -Ny 0.00 -Nz 0.00 -Ne 9.735628 -Nl RTR -Nw --- -Ma 0 -Md 0 -Ms 0 -Mt 0 -Is 0.0 -Id 0.255 -It vectorbasedforward -Il 0 -If 0 -Ii 6 -Iv 32 
r -t 19.932770560 -Hs 0 -Hd -2 -Ni 0 -Nx 415.00 -Ny 0.00 -Nz 0.00 -Ne 9.735628 -Nl RTR -Nw --- -Ma 0 -Md 0 -Ms 0 -Mt 0 -Is 0.0 -Id 0.255 -It vectorbasedforward -Il 0 -If 0 -Ii 7 -Iv 32 
N -t 20.000000 -n 0 -e 9.735115
N -t 20.000000 -n 1 -e 9.600669
N -t 20.000000 -n 2 -e 9.774323
N -t 20.000000 -n 3 -e 9.727785
N -t 20.000000 -n 4 -e 9.533541
N -t 20.000000 -n 5 -e 9.549036
N -t 20.000000 -n 6 -e 9.650277
r -t 20.001378680 -Hs 1 -Hd 1 -Ni 1 -Nx 330.00 -Ny 49.00 -Nz 0.00 -Ne 9.600669 -Nl RTR -Nw --- -Ma 0 -Md 0 -Ms 0 -Mt 0 -Is 0.0 -Id 0.0 -It UW-Aloha-ACK -Il 53 -If 0 -Ii 0 -Iv 0 
N -t 21.000000 -n 0 -e 9.727115
N -t 21.000000 -n 1 -e 9.592679
N -t 21.000000 -n 2 -e 9.766323
N -t 21.000000 -n 3 -e 9.719785
N -t 21.000000 -n 4 -e 9.525541
N -t 21.000000 -n 5 -e 9.541036
N -t 21.000000 -n 6 -e 9.642277
r -t 21.330000000 -Hs 6 -Hd -2 -Ni 6 -Nx 130.00 -Ny 0.00 -Nz 0.00 -Ne 9.642277 -Nl RTR -Nw --- -Ma 0 -Md 0 -Ms 0 -Mt 0 -Is 6.0 -Id 6.255 -It vectorbasedforward -Il 50 -If 0 -Ii 4 -Iv 0 
r -t 21.913666414 -Hs 5 -Hd 5 -Ni 5 -Nx 210.00 -Ny 0.00 -Nz 0.00 -Ne 9.515099 -Nl RTR -Nw --- -Ma 0 -Md 6000000 -Ms 8 -Mt 0 -Is 6.0 -Id 6.255 -It vectorbasedforward -Il 50 -If 0 -Ii 4 -Iv 0 
r -t 21.970199748 -Hs 6 -Hd 6 -Ni 6 -Nx 130.00 -Ny 0.00 -Nz 0.00 -Ne 9.599313 -Nl RTR -Nw --- -Ma 0 -Md 0 -Ms 0 -Mt 0 -Is 0.0 -Id 0.0 -It UW-Aloha-ACK -Il 53 -If 0 -Ii 0 -Iv 0 
N -t 22.000000 -n 0 -e 9.719115
N -t 22.000000 -n 1 -e 9.584679
N -t 22.000000 -n 2 -e 9.758323
N -t 22.000000 -n 3 -e 9.709410
N -t 22.000000 -n 4 -e 9.515167
N -t 22.000000 -n 5 -e 9.514434
N -t 22.000000 -n 6 -e 9.599075
r -t 22.553495317 -Hs 4 -Hd 4 -Ni 4 -Nx 240.00 -Ny 49.00 -Nz 0.00 -Ne 9.492111 -Nl RTR -Nw --- -Ma 0 -Md 5000000 -Ms 8 -Mt 0 -Is 6.0 -Id 6.255 -It vectorbasedforward -Il 50 -If 0 -Ii 4 -Iv 0 
r -t 22.594998203 -Hs 5 -Hd 5 -Ni 5 -Nx 210.00 -Ny 0.00 -Nz 0.00 -Ne 9.474471 -Nl RTR -Nw --- -Ma 0 -Md 0 -Ms 0 -Mt 0 -Is 0.0 -Id 0.0 -It UW-Aloha-ACK -Il 53 -If 0 -Ii 0 -Iv 0 
N -t 23.000000 -n 0 -e 9.711115
N -t 23.000000 -n 1 -e 9.574305
N -t 23.000000 -n 2 -e 9.750323
N -t 23.000000 -n 3 -e 9.689182
N -t 23.000000 -n 4 -e 9.488564
N -t 23.000000 -n 5 -e 9.471231
N -t 23.000000 -n 6 -e 9.578846
r -t 23.777624089 -Hs 1 -Hd 1 -Ni 1 -Nx 330.00 -Ny 49.00 -Nz 0.00 -Ne 9.549456 -Nl RTR -Nw --- -Ma 0 -Md 4000000 -Ms 8 -Mt 0 -Is 6.0 -Id 6.255 -It vectorbasedforward -Il 50 -If 0 -Ii 4 -Iv 0 
r -t 23.840824089 -Hs 4 -Hd 4 -Ni 4 -Nx 240.00 -Ny 49.00 -Nz 0.00 -Ne 9.446635 -Nl RTR -Nw --- -Ma 0 -Md 0 -Ms 0 -Mt 0 -Is 0.0 -Id 0.0 -It UW-Aloha-ACK -Il 53 -If 0 -Ii 0 -Iv 0 
N -t 24.000000 -n 0 -e 9.700741
N -t 24.000000 -n 1 -e 9.547702
N -t 24.000000 -n 2 -e 9.742323
N -t 24.000000 -n 3 -e 9.681182
N -t 24.000000 -n 4 -e 9.445362
N -t 24.000000 -n 5 -e 9.451003
N -t 24.000000 -n 6 -e 9.570846
N -t 25.000000 -n 0 -e 9.692741
N -t 25.000000 -n 1 -e 9.539702
N -t 25.000000 -n 2 -e 9.734323
N -t 25.000000 -n 3 -e 9.673182
N -t 25.000000 -n 4 -e 9.437362
N -t 25.000000 -n 5 -e 9.443003
N -t 25.000000 -n 6 -e 9.562846
N -t 26.000000 -n 0 -e 9.684741
N -t 26.000000 -n 1 -e 9.531702
N -t 26.000000 -n 2 -e 9.726323
N -t 26.000000 -n 3 -e 9.665182
N -t 26.000000 -n 4 -e 9.429362
N -t 26.000000 -n 5 -e 9.435003
N -t 26.000000 -n 6 -e 9.554846
r -t 26.330000000 -Hs 6 -Hd -2 -Ni 6 -Nx 130.00 -Ny 0.00 -Nz 0.00 -Ne 9.554846 -Nl RTR -Nw --- -Ma 0 -Md 0 -Ms 0 -Mt 0 -Is 6.0 -Id 6.255 -It vectorbasedforward -Il 50 -If 0 -Ii 5 -Iv 0 
r -t 26.568140195 -Hs 0 -Hd 0 -Ni 0 -Nx 415.00 -Ny 0.00 -Nz 0.00 -Ne 9.661568 -Nl RTR -Nw --- -Ma 0 -Md 1000000 -Ms 8 -Mt 0 -Is 6.0 -Id 6.255 -It vectorbasedforward -Il 50 -If 0 -Ii 4 -Iv 0 
r -t 26.568140195 -Hs 0 -Hd -2 -Ni 0 -Nx 415.00 -Ny 0.00 -Nz 0.00 -Ne 9.661568 -Nl RTR -Nw --- -Ma 0 -Md 0 -Ms 0 -Mt 0 -Is 0.0 -Id 0.255 -It vectorbasedforward -Il 0 -If 0 -Ii 8 -Iv 32 
r -t 26.568140195 -Hs 0 -Hd -2 -Ni 0 -Nx 415.00 -Ny 0.00 -Nz 0.00 -Ne 9.661568 -Nl RTR -Nw --- -Ma 0 -Md 0 -Ms 0 -Mt 0 -Is 0.0 -Id 0.255 -It vectorbasedforward -Il 0 -If 0 -Ii 9 -Iv 32 
r -t 26.583858759 -Hs 5 -Hd 5 -Ni 5 -Nx 210.00 -Ny 0.00 -Nz 0.00 -Ne 9.411704 -Nl RTR -Nw --- -Ma 0 -Md 6000000 -Ms 8 -Mt 0 -Is 6.0 -Id 6.255 -It vectorbasedforward -Il 50 -If 0 -Ii 5 -Iv 0 
r -t 26.636748315 -Hs 1 -Hd 1 -Ni 1 -Nx 330.00 -Ny 49.00 -Nz 0.00 -Ne 9.491406 -Nl RTR -Nw --- -Ma 0 -Md 0 -Ms 0 -Mt 0 -Is 0.0 -Id 0.0 -It UW-Aloha-ACK -Il 53 -If 0 -Ii 0 -Iv 0 
r -t 26.640392092 -Hs 6 -Hd 6 -Ni 6 -Nx 130.00 -Ny 0.00 -Nz 0.00 -Ne 9.514521 -Nl RTR -Nw --- -Ma 0 -Md 0 -Ms 0 -Mt 0 -Is 0.0 -Id 0.0 -It UW-Aloha-ACK -Il 53 -If 0 -Ii 0 -Iv 0 
N -t 27.000000 -n 0 -e 9.658138
N -t 27.000000 -n 1 -e 9.488500
N -t 27.000000 -n 2 -e 9.715948
N -t 27.000000 -n 3 -e 9.654808
N -t 27.000000 -n 4 -e 9.406759
N -t 27.000000 -n 5 -e 9.408400
N -t 27.000000 -n 6 -e 9.511644
r -t 27.134818358 -Hs 3 -Hd 3 -Ni 3 -Nx 290.00 -Ny -43.00 -Nz 0.00 -Ne 9.635101 -Nl RTR -Nw --- -Ma 0 -Md 5000000 -Ms 8 -Mt 0 -Is 6.0 -Id 6.255 -It vectorbasedforward -Il 50 -If 0 -Ii 5 -Iv 0 
r -t 27.198567695 -Hs 5 -Hd 5 -Ni 5 -Nx 210.00 -Ny 0.00 -Nz 0.00 -Ne 9.371609 -Nl RTR -Nw --- -Ma 0 -Md 0 -Ms 0 -Mt 0 -Is 0.0 -Id 0.0 -It UW-Aloha-ACK -Il 53 -If 0 -Ii 0 -Iv 0 
N -t 28.000000 -n 0 -e 9.650138
N -t 28.000000 -n 1 -e 9.480500
N -t 28.000000 -n 2 -e 9.705574
N -t 28.000000 -n 3 -e 9.628205
N -t 28.000000 -n 4 -e 9.386531
N -t 28.000000 -n 5 -e 9.365198
N -t 28.000000 -n 6 -e 9.491416
r -t 28.943369937 -Hs 2 -Hd 2 -Ni 2 -Nx 380.00 -Ny -40.00 -Nz 0.00 -Ne 9.679399 -Nl RTR -Nw --- -Ma 0 -Md 3000000 -Ms 8 -Mt 0 -Is 6.0 -Id 6.255 -It vectorbasedforward -Il 50 -If 0 -Ii 5 -Iv 0 
N -t 29.000000 -n 0 -e 9.639764
N -t 29.000000 -n 1 -e 9.472500
N -t 29.000000 -n 2 -e 9.678972
N -t 29.000000 -n 3 -e 9.587377
N -t 29.000000 -n 4 -e 9.378531
N -t 29.000000 -n 5 -e 9.344970
N -t 29.000000 -n 6 -e 9.483416
r -t 29.006603261 -Hs 3 -Hd 3 -Ni 3 -Nx 290.00 -Ny -43.00 -Nz 0.00 -Ne 9.584950 -Nl RTR -Nw --- -Ma 0 -Md 0 -Ms 0 -Mt 0 -Is 0.0 -Id 0.0 -It UW-Aloha-ACK -Il 53 -If 0 -Ii 0 -Iv 0 
r -t 29.734258355 -Hs 0 -Hd 0 -Ni 0 -Nx 415.00 -Ny 0.00 -Nz 0.00 -Ne 9.615262 -Nl RTR -Nw --- -Ma 0 -Md 2000000 -Ms 8 -Mt 0 -Is 6.0 -Id 6.255 -It vectorbasedforward -Il 50 -If 0 -Ii 5 -Iv 0 
r -t 29.734258355 -Hs 0 -Hd -2 -Ni 0 -Nx 415.00 -Ny 0.00 -Nz 0.00 -Ne 9.615262 -Nl RTR -Nw --- -Ma 0 -Md 0 -Ms 0 -Mt 0 -Is 0.0 -Id 0.255 -It vectorbasedforward -Il 0 -If 0 -Ii 10 -Iv 32 
r -t 29.734258355 -Hs 0 -Hd -2 -Ni 0 -Nx 415.00 -Ny 0.00 -Nz 0.00 -Ne 9.615262 -Nl RTR -Nw --- -Ma 0 -Md 0 -Ms 0 -Mt 0 -Is 0.0 -Id 0.255 -It vectorbasedforward -Il 0 -If 0 -Ii 11 -Iv 32 
r -t 29.772892175 -Hs 2 -Hd 2 -Ni 2 -Nx 380.00 -Ny -40.00 -Nz 0.00 -Ne 9.637586 -Nl RTR -Nw --- -Ma 0 -Md 0 -Ms 0 -Mt 0 -Is 0.0 -Id 0.0 -It UW-Aloha-ACK -Il 53 -If 0 -Ii 0 -Iv 0 
N -t 30.000000 -n 0 -e 9.613161
N -t 30.000000 -n 1 -e 9.462125
N -t 30.000000 -n 2 -e 9.635769
N -t 30.000000 -n 3 -e 9.564774
N -t 30.000000 -n 4 -e 9.370531
N -t 30.000000 -n 5 -e 9.336970
N -t 30.000000 -n 6 -e 9.475416
N -t 31.000000 -n 0 -e 9.605161
N -t 31.000000 -n 1 -e 9.454125
N -t 31.000000 -n 2 -e 9.627769
N -t 31.000000 -n 3 -e 9.556774
N -t 31.000000 -n 4 -e 9.362531
N -t 31.000000 -n 5 -e 9.328970
N -t 31.000000 -n 6 -e 9.467416
r -t 31.330000000 -Hs 6 -Hd -2 -Ni 6 -Nx 130.00 -Ny 0.00 -Nz 0.00 -Ne 9.467416 -Nl RTR -Nw --- -Ma 0 -Md 0 -Ms 0 -Mt 0 -Is 6.0 -Id 6.255 -It vectorbasedforward -Il 50 -If 0 -Ii 6 -Iv 0 
N -t 32.000000 -n 0 -e 9.597161
N -t 32.000000 -n 1 -e 9.446125
N -t 32.000000 -n 2 -e 9.619769
N -t 32.000000 -n 3 -e 9.548774
N -t 32.000000 -n 4 -e 9.354531
N -t 32.000000 -n 5 -e 9.320970
N -t 32.000000 -n 6 -e 9.459416
N -t 33.000000 -n 0 -e 9.589161
N -t 33.000000 -n 1 -e 9.438125
N -t 33.000000 -n 2 -e 9.611769
N -t 33.000000 -n 3 -e 9.540774
N -t 33.000000 -n 4 -e 9.346531
N -t 33.000000 -n 5 -e 9.312970
N -t 33.000000 -n 6 -e 9.451416
N -t 34.000000 -n 0 -e 9.581161
N -t 34.000000 -n 1 -e 9.430125
N -t 34.000000 -n 2 -e 9.603769
N -t 34.000000 -n 3 -e 9.532774
N -t 34.000000 -n 4 -e 9.338531
N -t 34.000000 -n 5 -e 9.304970
N -t 34.000000 -n 6 -e 9.443416
r -t 34.468253528 -Hs 5 -Hd 5 -Ni 5 -Nx 210.00 -Ny 0.00 -Nz 0.00 -Ne 9.282596 -Nl RTR -Nw --- -Ma 0 -Md 6000000 -Ms 8 -Mt 0 -Is 6.0 -Id 6.255 -It vectorbasedforward -Il 50 -If 0 -Ii 6 -Iv 0 
r -t 34.524786862 -Hs 6 -Hd 6 -Ni 6 -Nx 130.00 -Ny 0.00 -Nz 0.00 -Ne 9.404015 -Nl RTR -Nw --- -Ma 0 -Md 0 -Ms 0 -Mt 0 -Is 0.0 -Id 0.0 -It UW-Aloha-ACK -Il 53 -If 0 -Ii 0 -Iv 0 
N -t 35.000000 -n 0 -e 9.573161
N -t 35.000000 -n 1 -e 9.422125
N -t 35.000000 -n 2 -e 9.595769
N -t 35.000000 -n 3 -e 9.522400
N -t 35.000000 -n 4 -e 9.315928
N -t 35.000000 -n 5 -e 9.245539
N -t 35.000000 -n 6 -e 9.387889
r -t 35.019213127 -Hs 3 -Hd 3 -Ni 3 -Nx 290.00 -Ny -43.00 -Nz 0.00 -Ne 9.503618 -Nl RTR -Nw --- -Ma 0 -Md 5000000 -Ms 8 -Mt 0 -Is 6.0 -Id 6.255 -It vectorbasedforward -Il 50 -If 0 -Ii 6 -Iv 0 
r -t 35.082962465 -Hs 5 -Hd 5 -Ni 5 -Nx 210.00 -Ny 0.00 -Nz 0.00 -Ne 9.242501 -Nl RTR -Nw --- -Ma 0 -Md 0 -Ms 0 -Mt 0 -Is 0.0 -Id 0.0 -It UW-Aloha-ACK -Il 53 -If 0 -Ii 0 -Iv 0 
r -t 35.901736504 -Hs 2 -Hd 2 -Ni 2 -Nx 380.00 -Ny -40.00 -Nz 0.00 -Ne 9.567553 -Nl RTR -Nw --- -Ma 0 -Md 3000000 -Ms 8 -Mt 0 -Is 6.0 -Id 6.255 -It vectorbasedforward -Il 50 -If 0 -Ii 6 -Iv 0 
r -t 35.964969828 -Hs 3 -Hd 3 -Ni 3 -Nx 290.00 -Ny -43.00 -Nz 0.00 -Ne 9.460875 -Nl RTR -Nw --- -Ma 0 -Md 0 -Ms 0 -Mt 0 -Is 0.0 -Id 0.0 -It UW-Aloha-ACK -Il 53 -If 0 -Ii 0 -Iv 0 
N -t 36.000000 -n 0 -e 9.562787
N -t 36.000000 -n 1 -e 9.414125
N -t 36.000000 -n 2 -e 9.566792
N -t 36.000000 -n 3 -e 9.460595
N -t 36.000000 -n 4 -e 9.307928
N -t 36.000000 -n 5 -e 9.222936
N -t 36.000000 -n 6 -e 9.379985
r -t 36.330000000 -Hs 6 -Hd -2 -Ni 6 -Nx 130.00 -Ny 0.00 -Nz 0.00 -Ne 9.379985 -Nl RTR -Nw --- -Ma 0 -Md 0 -Ms 0 -Mt 0 -Is 6.0 -Id 6.255 -It vectorbasedforward -Il 50 -If 0 -Ii 7 -Iv 0 
r -t 36.399863333 -Hs 5 -Hd 5 -Ni 5 -Nx 210.00 -Ny 0.00 -Nz 0.00 -Ne 9.201109 -Nl RTR -Nw --- -Ma 0 -Md 6000000 -Ms 8 -Mt 0 -Is 6.0 -Id 6.255 -It vectorbasedforward -Il 50 -If 0 -Ii 7 -Iv 0 
r -t 36.456396667 -Hs 6 -Hd 6 -Ni 6 -Nx 130.00 -Ny 0.00 -Nz 0.00 -Ne 9.341131 -Nl RTR -Nw --- -Ma 0 -Md 0 -Ms 0 -Mt 0 -Is 0.0 -Id 0.0 -It UW-Aloha-ACK -Il 53 -If 0 -Ii 0 -Iv 0 
r -t 36.692624923 -Hs 0 -Hd 0 -Ni 0 -Nx 415.00 -Ny 0.00 -Nz 0.00 -Ne 9.538618 -Nl RTR -Nw --- -Ma 0 -Md 2000000 -Ms 8 -Mt 0 -Is 6.0 -Id 6.255 -It vectorbasedforward -Il 50 -If 0 -Ii 6 -Iv 0 
r -t 36.692624923 -Hs 0 -Hd -2 -Ni 0 -Nx 415.00 -Ny 0.00 -Nz 0.00 -Ne 9.538618 -Nl RTR -Nw --- -Ma 0 -Md 0 -Ms 0 -Mt 0 -Is 0.0 -Id 0.255 -It vectorbasedforward -Il 0 -If 0 -Ii 12 -Iv 32 
r -t 36.692624923 -Hs 0 -Hd -2 -Ni 0 -Nx 415.00 -Ny 0.00 -Nz 0.00 -Ne 9.538618 -Nl RTR -Nw --- -Ma 0 -Md 0 -Ms 0 -Mt 0 -Is 0.0 -Id 0.255 -It vectorbasedforward -Il 0 -If 0 -Ii 13 -Iv 32 
r -t 36.731258742 -Hs 2 -Hd 2 -Ni 2 -Nx 380.00 -Ny -40.00 -Nz 0.00 -Ne 9.525740 -Nl RTR -Nw --- -Ma 0 -Md 0 -Ms 0 -Mt 0 -Is 0.0 -Id 0.0 -It UW-Aloha-ACK -Il 53 -If 0 -Ii 0 -Iv 0 
N -t 37.000000 -n 0 -e 9.536184
N -t 37.000000 -n 1 -e 9.403751
N -t 37.000000 -n 2 -e 9.523589
N -t 37.000000 -n 3 -e 9.437992
N -t 37.000000 -n 4 -e 9.297554
N -t 37.000000 -n 5 -e 9.196334
N -t 37.000000 -n 6 -e 9.336782
r -t 37.349031978 -Hs 4 -Hd 4 -Ni 4 -Nx 240.00 -Ny 49.00 -Nz 0.00 -Ne 9.276134 -Nl RTR -Nw --- -Ma 0 -Md 5000000 -Ms 8 -Mt 0 -Is 6.0 -Id 6.255 -It vectorbasedforward -Il 50 -If 0 -Ii 7 -Iv 0 
r -t 37.390534864 -Hs 5 -Hd 5 -Ni 5 -Nx 210.00 -Ny 0.00 -Nz 0.00 -Ne 9.158007 -Nl RTR -Nw --- -Ma 0 -Md 0 -Ms 0 -Mt 0 -Is 0.0 -Id 0.0 -It UW-Aloha-ACK -Il 53 -If 0 -Ii 0 -Iv 0 
N -t 38.000000 -n 0 -e 9.528184
N -t 38.000000 -n 1 -e 9.393377
N -t 38.000000 -n 2 -e 9.515589
N -t 38.000000 -n 3 -e 9.417764
N -t 38.000000 -n 4 -e 9.270951
N -t 38.000000 -n 5 -e 9.153131
N -t 38.000000 -n 6 -e 9.316554
r -t 38.573160750 -Hs 1 -Hd 1 -Ni 1 -Nx 330.00 -Ny 49.00 -Nz 0.00 -Ne 9.370163 -Nl RTR -Nw --- -Ma 0 -Md 4000000 -Ms 8 -Mt 0 -Is 6.0 -Id 6.255 -It vectorbasedforward -Il 50 -If 0 -Ii 7 -Iv 0 
r -t 38.636360750 -Hs 4 -Hd 4 -Ni 4 -Nx 240.00 -Ny 49.00 -Nz 0.00 -Ne 9.230658 -Nl RTR -Nw --- -Ma 0 -Md 0 -Ms 0 -Mt 0 -Is 0.0 -Id 0.0 -It UW-Aloha-ACK -Il 53 -If 0 -Ii 0 -Iv 0 
N -t 39.000000 -n 0 -e 9.517810
N -t 39.000000 -n 1 -e 9.366774
N -t 39.000000 -n 2 -e 9.507589
N -t 39.000000 -n 3 -e 9.409764
N -t 39.000000 -n 4 -e 9.227749
N -t 39.000000 -n 5 -e 9.132903
N -t 39.000000 -n 6 -e 9.308554
r -t 39.453195246 -Hs 0 -Hd 0 -Ni 0 -Nx 415.00 -Ny 0.00 -Nz 0.00 -Ne 9.495556 -Nl RTR -Nw --- -Ma 0 -Md 1000000 -Ms 8 -Mt 0 -Is 6.0 -Id 6.255 -It vectorbasedforward -Il 50 -If 0 -Ii 7 -Iv 0 
r -t 39.453195246 -Hs 0 -Hd -2 -Ni 0 -Nx 415.00 -Ny 0.00 -Nz 0.00 -Ne 9.495556 -Nl RTR -Nw --- -Ma 0 -Md 0 -Ms 0 -Mt 0 -Is 0.0 -Id 0.255 -It vectorbasedforward -Il 0 -If 0 -Ii 14 -Iv 32 
r -t 39.453195246 -Hs 0 -Hd -2 -Ni 0 -Nx 415.00 -Ny 0.00 -Nz 0.00 -Ne 9.495556 -Nl RTR -Nw --- -Ma 0 -Md 0 -Ms 0 -Mt 0 -Is 0.0 -Id 0.255 -It vectorbasedforward -Il 0 -If 0 -Ii 15 -Iv 32 
r -t 39.521803366 -Hs 1 -Hd 1 -Ni 1 -Nx 330.00 -Ny 49.00 -Nz 0.00 -Ne 9.327397 -Nl RTR -Nw --- -Ma 0 -Md 0 -Ms 0 -Mt 0 -Is 0.0 -Id 0.0 -It UW-Aloha-ACK -Il 53 -If 0 -Ii 0 -Iv 0 
N -t 40.000000 -n 0 -e 9.491207
N -t 40.000000 -n 1 -e 9.323572
N -t 40.000000 -n 2 -e 9.497215
N -t 40.000000 -n 3 -e 9.401764
N -t 40.000000 -n 4 -e 9.207521
N -t 40.000000 -n 5 -e 9.124903
N -t 40.000000 -n 6 -e 9.300554
N -t 41.000000 -n 0 -e 9.483207
N -t 41.000000 -n 1 -e 9.315572
N -t 41.000000 -n 2 -e 9.489215
N -t 41.000000 -n 3 -e 9.393764
N -t 41.000000 -n 4 -e 9.199521
N -t 41.000000 -n 5 -e 9.116903
N -t 41.000000 -n 6 -e 9.292554
r -t 41.330000000 -Hs 6 -Hd -2 -Ni 6 -Nx 130.00 -Ny 0.00 -Nz 0.00 -Ne 9.292554 -Nl RTR -Nw --- -Ma 0 -Md 0 -Ms 0 -Mt 0 -Is 6.0 -Id 6.255 -It vectorbasedforward -Il 50 -If 0 -Ii 8 -Iv 0 
N -t 42.000000 -n 0 -e 9.475207
N -t 42.000000 -n 1 -e 9.307572
N -t 42.000000 -n 2 -e 9.481215
N -t 42.000000 -n 3 -e 9.385764
N -t 42.000000 -n 4 -e 9.191521
N -t 42.000000 -n 5 -e 9.108903
N -t 42.000000 -n 6 -e 9.284554
r -t 42.139488608 -Hs 5 -Hd 5 -Ni 5 -Nx 210.00 -Ny 0.00 -Nz 0.00 -Ne 9.089159 -Nl RTR -Nw --- -Ma 0 -Md 6000000 -Ms 8 -Mt 0 -Is 6.0 -Id 6.255 -It vectorbasedforward -Il 50 -If 0 -Ii 8 -Iv 0 
r -t 42.196021942 -Hs 6 -Hd 6 -Ni 6 -Nx 130.00 -Ny 0.00 -Nz 0.00 -Ne 9.247784 -Nl RTR -Nw --- -Ma 0 -Md 0 -Ms 0 -Mt 0 -Is 0.0 -Id 0.0 -It UW-Aloha-ACK -Il 53 -If 0 -Ii 0 -Iv 0 
r -t 42.668201757 -Hs 4 -Hd 4 -Ni 4 -Nx 240.00 -Ny 49.00 -Nz 0.00 -Ne 9.165173 -Nl RTR -Nw --- -Ma 0 -Md 5000000 -Ms 8 -Mt 0 -Is 6.0 -Id 6.255 -It vectorbasedforward -Il 50 -If 0 -Ii 8 -Iv 0 
r -t 42.709704643 -Hs 5 -Hd 5 -Ni 5 -Nx 210.00 -Ny 0.00 -Nz 0.00 -Ne 9.049420 -Nl RTR -Nw --- -Ma 0 -Md 0 -Ms 0 -Mt 0 -Is 0.0 -Id 0.0 -It UW-Aloha-ACK -Il 53 -If 0 -Ii 0 -Iv 0 
N -t 43.000000 -n 0 -e 9.467207
N -t 43.000000 -n 1 -e 9.297197
N -t 43.000000 -n 2 -e 9.473215
N -t 43.000000 -n 3 -e 9.363162
N -t 43.000000 -n 4 -e 9.162544
N -t 43.000000 -n 5 -e 9.047098
N -t 43.000000 -n 6 -e 9.229124
r -t 43.892330529 -Hs 1 -Hd 1 -Ni 1 -Nx 330.00 -Ny 49.00 -Nz 0.00 -Ne 9.271431 -Nl RTR -Nw --- -Ma 0 -Md 4000000 -Ms 8 -Mt 0 -Is 6.0 -Id 6.255 -It vectorbasedforward -Il 50 -If 0 -Ii 8 -Iv 0 
r -t 43.955530529 -Hs 4 -Hd 4 -Ni 4 -Nx 240.00 -Ny 49.00 -Nz 0.00 -Ne 9.119697 -Nl RTR -Nw --- -Ma 0 -Md 0 -Ms 0 -Mt 0 -Is 0.0 -Id 0.0 -It UW-Aloha-ACK -Il 53 -If 0 -Ii 0 -Iv 0 
N -t 44.000000 -n 0 -e 9.456833
N -t 44.000000 -n 1 -e 9.270595
N -t 44.000000 -n 2 -e 9.465215
N -t 44.000000 -n 3 -e 9.355162
N -t 44.000000 -n 4 -e 9.119341
N -t 44.000000 -n 5 -e 9.026870
N -t 44.000000 -n 6 -e 9.221124
r -t 44.772365025 -Hs 0 -Hd 0 -Ni 0 -Nx 415.00 -Ny 0.00 -Nz 0.00 -Ne 9.432026 -Nl RTR -Nw --- -Ma 0 -Md 1000000 -Ms 8 -Mt 0 -Is 6.0 -Id 6.255 -It vectorbasedforward -Il 50 -If 0 -Ii 8 -Iv 0 
r -t 44.772365025 -Hs 0 -Hd -2 -Ni 0 -Nx 415.00 -Ny 0.00 -Nz 0.00 -Ne 9.432026 -Nl RTR -Nw --- -Ma 0 -Md 0 -Ms 0 -Mt 0 -Is 0.0 -Id 0.255 -It vectorbasedforward -Il 0 -If 0 -Ii 16 -Iv 32 