N -t 1.000000 -n 0 -e 9.992000
N -t 1.000000 -n 1 -e 9.992000
N -t 1.000000 -n 2 -e 9.992000
N -t 1.000000 -n 3 -e 9.992000
N -t 1.000000 -n 4 -e 9.992000
N -t 1.000000 -n 5 -e 9.992000
s -t 1.330025000 -Hs 5 -Hd 4 -Ni 5 -Nx 140.00 -Ny 0.00 -Nz 0.00 -Ne 9.992000 -Nl MAC -Nw --- -Ma 0 -Md 5000000 -Ms ffff0008 -Mt 0 -Is 5 -Id 0 -It vectorbasedforward -Il 50 -If 0 -Ii 0 -Iv 0 
r -t 1.396691667 -Hs 4 -Hd 4 -Ni 4 -Nx 180.00 -Ny 0.00 -Nz 0.00 -Ne 9.959146 -Nl MAC -Nw --- -Ma 0 -Md 5000000 -Ms ffff0008 -Mt 0 -Is 5 -Id 0 -It vectorbasedforward -Il 50 -If 0 -Ii 0 -Iv 0 
N -t 2.000000 -n 0 -e 9.984000
N -t 2.000000 -n 1 -e 9.984000
N -t 2.000000 -n 2 -e 9.984000
N -t 2.000000 -n 3 -e 9.984000
N -t 2.000000 -n 4 -e 9.954320
N -t 2.000000 -n 5 -e 9.904320
s -t 2.251338336 -Hs 4 -Hd 2 -Ni 4 -Nx 180.00 -Ny 0.00 -Nz 0.00 -Ne 9.954320 -Nl MAC -Nw --- -Ma 0 -Md 4000000 -Ms ffff0008 -Mt 0 -Is 5 -Id 0 -It vectorbasedforward -Il 50 -If 0 -Ii 0 -Iv 0 
r -t 2.318005003 -Hs 5 -Hd 2 -Ni 5 -Nx 140.00 -Ny 0.00 -Nz 0.00 -Ne 9.872096 -Nl MAC -Nw --- -Ma 0 -Md 4000000 -Ms ffff0008 -Mt 0 -Is 5 -Id 0 -It vectorbasedforward -Il 50 -If 0 -Ii 0 -Iv 0 
N -t 3.000000 -n 0 -e 9.976000
N -t 3.000000 -n 1 -e 9.976000
N -t 3.000000 -n 2 -e 9.976000
N -t 3.000000 -n 3 -e 9.946320
N -t 3.000000 -n 4 -e 9.866640
N -t 3.000000 -n 5 -e 9.866640
N -t 4.000000 -n 0 -e 9.968000
N -t 4.000000 -n 1 -e 9.968000
N -t 4.000000 -n 2 -e 9.968000
N -t 4.000000 -n 3 -e 9.938320
N -t 4.000000 -n 4 -e 9.858640
N -t 4.000000 -n 5 -e 9.858640
N -t 5.000000 -n 0 -e 9.960000
N -t 5.000000 -n 1 -e 9.960000
N -t 5.000000 -n 2 -e 9.960000
N -t 5.000000 -n 3 -e 9.930320
N -t 5.000000 -n 4 -e 9.850640
N -t 5.000000 -n 5 -e 9.850640
N -t 6.000000 -n 0 -e 9.952000
N -t 6.000000 -n 1 -e 9.952000
N -t 6.000000 -n 2 -e 9.952000
N -t 6.000000 -n 3 -e 9.922320
N -t 6.000000 -n 4 -e 9.842640
N -t 6.000000 -n 5 -e 9.842640
s -t 6.330025000 -Hs 5 -Hd 4 -Ni 5 -Nx 140.00 -Ny 0.00 -Nz 0.00 -Ne 9.842640 -Nl MAC -Nw --- -Ma 0 -Md 5000000 -Ms ffff0008 -Mt 0 -Is 5 -Id 0 -It vectorbasedforward -Il 50 -If 0 -Ii 1 -Iv 0 
r -t 6.396691667 -Hs 4 -Hd 4 -Ni 4 -Nx 180.00 -Ny 0.00 -Nz 0.00 -Ne 9.809786 -Nl MAC -Nw --- -Ma 0 -Md 5000000 -Ms ffff0008 -Mt 0 -Is 5 -Id 0 -It vectorbasedforward -Il 50 -If 0 -Ii 1 -Iv 0 
N -t 7.000000 -n 0 -e 9.944000
N -t 7.000000 -n 1 -e 9.944000
N -t 7.000000 -n 2 -e 9.944000
N -t 7.000000 -n 3 -e 9.914320
N -t 7.000000 -n 4 -e 9.804960
N -t 7.000000 -n 5 -e 9.754960
s -t 7.251338336 -Hs 4 -Hd 2 -Ni 4 -Nx 180.00 -Ny 0.00 -Nz 0.00 -Ne 9.804960 -Nl MAC -Nw --- -Ma 0 -Md 4000000 -Ms ffff0008 -Mt 0 -Is 5 -Id 0 -It vectorbasedforward -Il 50 -If 0 -Ii 1 -Iv 0 
r -t 7.318005003 -Hs 5 -Hd 2 -Ni 5 -Nx 140.00 -Ny 0.00 -Nz 0.00 -Ne 9.722736 -Nl MAC -Nw --- -Ma 0 -Md 4000000 -Ms ffff0008 -Mt 0 -Is 5 -Id 0 -It vectorbasedforward -Il 50 -If 0 -Ii 1 -Iv 0 
r -t 7.339064406 -Hs 3 -Hd 2 -Ni 3 -Nx 250.00 -Ny 0.00 -Nz -15.00 -Ne 9.881927 -Nl MAC -Nw --- -Ma 0 -Md 4000000 -Ms ffff0008 -Mt 0 -Is 5 -Id 0 -It vectorbasedforward -Il 50 -If 0 -Ii 1 -Iv 0 
N -t 8.000000 -n 0 -e 9.936000
N -t 8.000000 -n 1 -e 9.936000
N -t 8.000000 -n 2 -e 9.936000
N -t 8.000000 -n 3 -e 9.876640
N -t 8.000000 -n 4 -e 9.717280
N -t 8.000000 -n 5 -e 9.717280
s -t 8.047815992 -Hs 3 -Hd 1 -Ni 3 -Nx 250.00 -Ny 0.00 -Nz -15.00 -Ne 9.876640 -Nl MAC -Nw --- -Ma 0 -Md 3000000 -Ms ffff0008 -Mt 0 -Is 5 -Id 0 -It vectorbasedforward -Il 50 -If 0 -Ii 1 -Iv 0 
r -t 8.121149326 -Hs 2 -Hd 1 -Ni 2 -Nx 290.00 -Ny 0.00 -Nz 15.00 -Ne 9.905351 -Nl MAC -Nw --- -Ma 0 -Md 3000000 -Ms ffff0008 -Mt 0 -Is 5 -Id 0 -It vectorbasedforward -Il 50 -If 0 -Ii 1 -Iv 0 
r -t 8.135542062 -Hs 4 -Hd 1 -Ni 4 -Nx 180.00 -Ny 0.00 -Nz 0.00 -Ne 9.686516 -Nl MAC -Nw --- -Ma 0 -Md 3000000 -Ms ffff0008 -Mt 0 -Is 5 -Id 0 -It vectorbasedforward -Il 50 -If 0 -Ii 1 -Iv 0 
N -t 9.000000 -n 0 -e 9.928000
N -t 9.000000 -n 1 -e 9.928000
N -t 9.000000 -n 2 -e 9.898320
N -t 9.000000 -n 3 -e 9.788960
N -t 9.000000 -n 4 -e 9.679600
N -t 9.000000 -n 5 -e 9.709280
s -t 9.040878299 -Hs 2 -Hd 1 -Ni 2 -Nx 290.00 -Ny 0.00 -Nz 15.00 -Ne 9.898320 -Nl MAC -Nw --- -Ma 0 -Md 2000000 -Ms ffff0008 -Mt 0 -Is 5 -Id 0 -It vectorbasedforward -Il 50 -If 0 -Ii 1 -Iv 0 
r -t 9.128604369 -Hs 1 -Hd 1 -Ni 1 -Nx 360.00 -Ny 0.00 -Nz 0.00 -Ne 9.897291 -Nl MAC -Nw --- -Ma 0 -Md 2000000 -Ms ffff0008 -Mt 0 -Is 5 -Id 0 -It vectorbasedforward -Il 50 -If 0 -Ii 1 -Iv 0 
s -t 9.703702583 -Hs 1 -Hd 0 -Ni 1 -Nx 360.00 -Ny 0.00 -Nz 0.00 -Ne 9.897291 -Nl MAC -Nw --- -Ma 0 -Md 1000000 -Ms ffff0008 -Mt 0 -Is 5 -Id 0 -It vectorbasedforward -Il 50 -If 0 -Ii 1 -Iv 0 
r -t 9.791428654 -Hs 2 -Hd 0 -Ni 2 -Nx 290.00 -Ny 0.00 -Nz 15.00 -Ne 9.782629 -Nl MAC -Nw --- -Ma 0 -Md 1000000 -Ms ffff0008 -Mt 0 -Is 5 -Id 0 -It vectorbasedforward -Il 50 -If 0 -Ii 1 -Iv 0 
r -t 9.797035917 -Hs 0 -Hd 0 -Ni 0 -Nx 440.00 -Ny 0.00 -Nz 0.00 -Ne 9.891944 -Nl MAC -Nw --- -Ma 0 -Md 1000000 -Ms ffff0008 -Mt 0 -Is 5 -Id 0 -It vectorbasedforward -Il 50 -If 0 -Ii 1 -Iv 0 
N -t 10.000000 -n 0 -e 9.890320
N -t 10.000000 -n 1 -e 9.810640
N -t 10.000000 -n 2 -e 9.780960
N -t 10.000000 -n 3 -e 9.751280
N -t 10.000000 -n 4 -e 9.671600
N -t 10.000000 -n 5 -e 9.701280
N -t 11.000000 -n 0 -e 9.882320
N -t 11.000000 -n 1 -e 9.802640
N -t 11.000000 -n 2 -e 9.772960
N -t 11.000000 -n 3 -e 9.743280
N -t 11.000000 -n 4 -e 9.663600
N -t 11.000000 -n 5 -e 9.693280
s -t 11.330025000 -Hs 5 -Hd 4 -Ni 5 -Nx 140.00 -Ny 0.00 -Nz 0.00 -Ne 9.693280 -Nl MAC -Nw --- -Ma 0 -Md 5000000 -Ms ffff0008 -Mt 0 -Is 5 -Id 0 -It vectorbasedforward -Il 50 -If 0 -Ii 2 -Iv 0 
r -t 11.396691667 -Hs 4 -Hd 4 -Ni 4 -Nx 180.00 -Ny 0.00 -Nz 0.00 -Ne 9.630746 -Nl MAC -Nw --- -Ma 0 -Md 5000000 -Ms ffff0008 -Mt 0 -Is 5 -Id 0 -It vectorbasedforward -Il 50 -If 0 -Ii 2 -Iv 0 
N -t 12.000000 -n 0 -e 9.874320
N -t 12.000000 -n 1 -e 9.794640
N -t 12.000000 -n 2 -e 9.764960
N -t 12.000000 -n 3 -e 9.735280
N -t 12.000000 -n 4 -e 9.625920
N -t 12.000000 -n 5 -e 9.605600
s -t 12.251338336 -Hs 4 -Hd 2 -Ni 4 -Nx 180.00 -Ny 0.00 -Nz 0.00 -Ne 9.625920 -Nl MAC -Nw --- -Ma 0 -Md 4000000 -Ms ffff0008 -Mt 0 -Is 5 -Id 0 -It vectorbasedforward -Il 50 -If 0 -Ii 2 -Iv 0 
r -t 12.318005003 -Hs 5 -Hd 2 -Ni 5 -Nx 140.00 -Ny 0.00 -Nz 0.00 -Ne 9.573376 -Nl MAC -Nw --- -Ma 0 -Md 4000000 -Ms ffff0008 -Mt 0 -Is 5 -Id 0 -It vectorbasedforward -Il 50 -If 0 -Ii 2 -Iv 0 
N -t 13.000000 -n 0 -e 9.866320
N -t 13.000000 -n 1 -e 9.786640
N -t 13.000000 -n 2 -e 9.756960
N -t 13.000000 -n 3 -e 9.697600
N -t 13.000000 -n 4 -e 9.538240
N -t 13.000000 -n 5 -e 9.567920
N -t 14.000000 -n 0 -e 9.858320
N -t 14.000000 -n 1 -e 9.778640
N -t 14.000000 -n 2 -e 9.748960
N -t 14.000000 -n 3 -e 9.689600
N -t 14.000000 -n 4 -e 9.530240
N -t 14.000000 -n 5 -e 9.559920
N -t 15.000000 -n 0 -e 9.850320
N -t 15.000000 -n 1 -e 9.770640
N -t 15.000000 -n 2 -e 9.740960
N -t 15.000000 -n 3 -e 9.681600
N -t 15.000000 -n 4 -e 9.522240
N -t 15.000000 -n 5 -e 9.551920
N -t 16.000000 -n 0 -e 9.842320
N -t 16.000000 -n 1 -e 9.762640
N -t 16.000000 -n 2 -e 9.732960
N -t 16.000000 -n 3 -e 9.673600
N -t 16.000000 -n 4 -e 9.514240
N -t 16.000000 -n 5 -e 9.543920
s -t 16.330025000 -Hs 5 -Hd 4 -Ni 5 -Nx 140.00 -Ny 0.00 -Nz 0.00 -Ne 9.543920 -Nl MAC -Nw --- -Ma 0 -Md 5000000 -Ms ffff0008 -Mt 0 -Is 5 -Id 0 -It vectorbasedforward -Il 50 -If 0 -Ii 3 -Iv 0 
r -t 16.396691667 -Hs 4 -Hd 4 -Ni 4 -Nx 180.00 -Ny 0.00 -Nz 0.00 -Ne 9.481386 -Nl MAC -Nw --- -Ma 0 -Md 5000000 -Ms ffff0008 -Mt 0 -Is 5 -Id 0 -It vectorbasedforward -Il 50 -If 0 -Ii 3 -Iv 0 
N -t 17.000000 -n 0 -e 9.834320
N -t 17.000000 -n 1 -e 9.754640
N -t 17.000000 -n 2 -e 9.724960
N -t 17.000000 -n 3 -e 9.665600
N -t 17.000000 -n 4 -e 9.476560
N -t 17.000000 -n 5 -e 9.456240
s -t 17.251338336 -Hs 4 -Hd 2 -Ni 4 -Nx 180.00 -Ny 0.00 -Nz 0.00 -Ne 9.476560 -Nl MAC -Nw --- -Ma 0 -Md 4000000 -Ms ffff0008 -Mt 0 -Is 5 -Id 0 -It vectorbasedforward -Il 50 -If 0 -Ii 3 -Iv 0 
r -t 17.318005003 -Hs 5 -Hd 2 -Ni 5 -Nx 140.00 -Ny 0.00 -Nz 0.00 -Ne 9.424016 -Nl MAC -Nw --- -Ma 0 -Md 4000000 -Ms ffff0008 -Mt 0 -Is 5 -Id 0 -It vectorbasedforward -Il 50 -If 0 -Ii 3 -Iv 0 
r -t 17.339064406 -Hs 3 -Hd 2 -Ni 3 -Nx 250.00 -Ny 0.00 -Nz -15.00 -Ne 9.633207 -Nl MAC -Nw --- -Ma 0 -Md 4000000 -Ms ffff0008 -Mt 0 -Is 5 -Id 0 -It vectorbasedforward -Il 50 -If 0 -Ii 3 -Iv 0 
N -t 18.000000 -n 0 -e 9.826320
N -t 18.000000 -n 1 -e 9.746640
N -t 18.000000 -n 2 -e 9.716960
N -t 18.000000 -n 3 -e 9.627920
N -t 18.000000 -n 4 -e 9.388880
N -t 18.000000 -n 5 -e 9.418560
s -t 18.047815992 -Hs 3 -Hd 1 -Ni 3 -Nx 250.00 -Ny 0.00 -Nz -15.00 -Ne 9.627920 -Nl MAC -Nw --- -Ma 0 -Md 3000000 -Ms ffff0008 -Mt 0 -Is 5 -Id 0 -It vectorbasedforward -Il 50 -If 0 -Ii 3 -Iv 0 
r -t 18.121149326 -Hs 2 -Hd 1 -Ni 2 -Nx 290.00 -Ny 0.00 -Nz 15.00 -Ne 9.686311 -Nl MAC -Nw --- -Ma 0 -Md 3000000 -Ms ffff0008 -Mt 0 -Is 5 -Id 0 -It vectorbasedforward -Il 50 -If 0 -Ii 3 -Iv 0 
r -t 18.135542062 -Hs 4 -Hd 1 -Ni 4 -Nx 180.00 -Ny 0.00 -Nz 0.00 -Ne 9.358116 -Nl MAC -Nw --- -Ma 0 -Md 3000000 -Ms ffff0008 -Mt 0 -Is 5 -Id 0 -It vectorbasedforward -Il 50 -If 0 -Ii 3 -Iv 0 
N -t 19.000000 -n 0 -e 9.818320
N -t 19.000000 -n 1 -e 9.738640
N -t 19.000000 -n 2 -e 9.679280
N -t 19.000000 -n 3 -e 9.540240
N -t 19.000000 -n 4 -e 9.351200
N -t 19.000000 -n 5 -e 9.410560
s -t 19.040878299 -Hs 2 -Hd 1 -Ni 2 -Nx 290.00 -Ny 0.00 -Nz 15.00 -Ne 9.679280 -Nl MAC -Nw --- -Ma 0 -Md 2000000 -Ms ffff0008 -Mt 0 -Is 5 -Id 0 -It vectorbasedforward -Il 50 -If 0 -Ii 3 -Iv 0 
r -t 19.128604369 -Hs 1 -Hd 1 -Ni 1 -Nx 360.00 -Ny 0.00 -Nz 0.00 -Ne 9.707931 -Nl MAC -Nw --- -Ma 0 -Md 2000000 -Ms ffff0008 -Mt 0 -Is 5 -Id 0 -It vectorbasedforward -Il 50 -If 0 -Ii 3 -Iv 0 
s -t 19.703702583 -Hs 1 -Hd 0 -Ni 1 -Nx 360.00 -Ny 0.00 -Nz 0.00 -Ne 9.707931 -Nl MAC -Nw --- -Ma 0 -Md 1000000 -Ms ffff0008 -Mt 0 -Is 5 -Id 0 -It vectorbasedforward -Il 50 -If 0 -Ii 3 -Iv 0 
r -t 19.791428654 -Hs 2 -Hd 0 -Ni 2 -Nx 290.00 -Ny 0.00 -Nz 15.00 -Ne 9.563589 -Nl MAC -Nw --- -Ma 0 -Md 1000000 -Ms ffff0008 -Mt 0 -Is 5 -Id 0 -It vectorbasedforward -Il 50 -If 0 -Ii 3 -Iv 0 
r -t 19.797035917 -Hs 0 -Hd 0 -Ni 0 -Nx 440.00 -Ny 0.00 -Nz 0.00 -Ne 9.782264 -Nl MAC -Nw --- -Ma 0 -Md 1000000 -Ms ffff0008 -Mt 0 -Is 5 -Id 0 -It vectorbasedforward -Il 50 -If 0 -Ii 3 -Iv 0 
N -t 20.000000 -n 0 -e 9.780640
N -t 20.000000 -n 1 -e 9.621280
N -t 20.000000 -n 2 -e 9.561920
N -t 20.000000 -n 3 -e 9.502560
N -t 20.000000 -n 4 -e 9.343200
N -t 20.000000 -n 5 -e 9.402560
N -t 21.000000 -n 0 -e 9.772640
N -t 21.000000 -n 1 -e 9.613280
N -t 21.000000 -n 2 -e 9.553920
N -t 21.000000 -n 3 -e 9.494560
N -t 21.000000 -n 4 -e 9.335200
N -t 21.000000 -n 5 -e 9.394560
s -t 21.330025000 -Hs 5 -Hd 4 -Ni 5 -Nx 140.00 -Ny 0.00 -Nz 0.00 -Ne 9.394560 -Nl MAC -Nw --- -Ma 0 -Md 5000000 -Ms ffff0008 -Mt 0 -Is 5 -Id 0 -It vectorbasedforward -Il 50 -If 0 -Ii 4 -Iv 0 
r -t 21.396691667 -Hs 4 -Hd 4 -Ni 4 -Nx 180.00 -Ny 0.00 -Nz 0.00 -Ne 9.302346 -Nl MAC -Nw --- -Ma 0 -Md 5000000 -Ms ffff0008 -Mt 0 -Is 5 -Id 0 -It vectorbasedforward -Il 50 -If 0 -Ii 4 -Iv 0 
N -t 22.000000 -n 0 -e 9.764640
N -t 22.000000 -n 1 -e 9.605280
N -t 22.000000 -n 2 -e 9.545920
N -t 22.000000 -n 3 -e 9.486560
N -t 22.000000 -n 4 -e 9.297520
N -t 22.000000 -n 5 -e 9.306880
s -t 22.251338336 -Hs 4 -Hd 2 -Ni 4 -Nx 180.00 -Ny 0.00 -Nz 0.00 -Ne 9.297520 -Nl MAC -Nw --- -Ma 0 -Md 4000000 -Ms ffff0008 -Mt 0 -Is 5 -Id 0 -It vectorbasedforward -Il 50 -If 0 -Ii 4 -Iv 0 
r -t 22.318005003 -Hs 5 -Hd 2 -Ni 5 -Nx 140.00 -Ny 0.00 -Nz 0.00 -Ne 9.274656 -Nl MAC -Nw --- -Ma 0 -Md 4000000 -Ms ffff0008 -Mt 0 -Is 5 -Id 0 -It vectorbasedforward -Il 50 -If 0 -Ii 4 -Iv 0 
N -t 23.000000 -n 0 -e 9.756640
N -t 23.000000 -n 1 -e 9.597280
N -t 23.000000 -n 2 -e 9.537920
N -t 23.000000 -n 3 -e 9.448880
N -t 23.000000 -n 4 -e 9.209840
N -t 23.000000 -n 5 -e 9.269200
N -t 24.000000 -n 0 -e 9.748640
N -t 24.000000 -n 1 -e 9.589280
N -t 24.000000 -n 2 -e 9.529920
N -t 24.000000 -n 3 -e 9.440880
N -t 24.000000 -n 4 -e 9.201840
N -t 24.000000 -n 5 -e 9.261200
N -t 25.000000 -n 0 -e 9.740640
N -t 25.000000 -n 1 -e 9.581280
N -t 25.000000 -n 2 -e 9.521920
N -t 25.000000 -n 3 -e 9.432880
N -t 25.000000 -n 4 -e 9.193840
N -t 25.000000 -n 5 -e 9.253200
N -t 26.000000 -n 0 -e 9.732640
N -t 26.000000 -n 1 -e 9.573280
N -t 26.000000 -n 2 -e 9.513920
N -t 26.000000 -n 3 -e 9.424880
N -t 26.000000 -n 4 -e 9.185840
N -t 26.000000 -n 5 -e 9.245200
s -t 26.330025000 -Hs 5 -Hd 4 -Ni 5 -Nx 140.00 -Ny 0.00 -Nz 0.00 -Ne 9.245200 -Nl MAC -Nw --- -Ma 0 -Md 5000000 -Ms ffff0008 -Mt 0 -Is 5 -Id 0 -It vectorbasedforward -Il 50 -If 0 -Ii 5 -Iv 0 
r -t 26.396691667 -Hs 4 -Hd 4 -Ni 4 -Nx 180.00 -Ny 0.00 -Nz 0.00 -Ne 9.152986 -Nl MAC -Nw --- -Ma 0 -Md 5000000 -Ms ffff0008 -Mt 0 -Is 5 -Id 0 -It vectorbasedforward -Il 50 -If 0 -Ii 5 -Iv 0 
N -t 27.000000 -n 0 -e 9.724640
N -t 27.000000 -n 1 -e 9.565280
N -t 27.000000 -n 2 -e 9.505920
N -t 27.000000 -n 3 -e 9.416880
N -t 27.000000 -n 4 -e 9.148160
N -t 27.000000 -n 5 -e 9.157520
s -t 27.251338336 -Hs 4 -Hd 2 -Ni 4 -Nx 180.00 -Ny 0.00 -Nz 0.00 -Ne 9.148160 -Nl MAC -Nw --- -Ma 0 -Md 4000000 -Ms ffff0008 -Mt 0 -Is 5 -Id 0 -It vectorbasedforward -Il 50 -If 0 -Ii 5 -Iv 0 
r -t 27.318005003 -Hs 5 -Hd 2 -Ni 5 -Nx 140.00 -Ny 0.00 -Nz 0.00 -Ne 9.125296 -Nl MAC -Nw --- -Ma 0 -Md 4000000 -Ms ffff0008 -Mt 0 -Is 5 -Id 0 -It vectorbasedforward -Il 50 -If 0 -Ii 5 -Iv 0 
r -t 27.339064406 -Hs 3 -Hd 2 -Ni 3 -Nx 250.00 -Ny 0.00 -Nz -15.00 -Ne 9.384487 -Nl MAC -Nw --- -Ma 0 -Md 4000000 -Ms ffff0008 -Mt 0 -Is 5 -Id 0 -It vectorbasedforward -Il 50 -If 0 -Ii 5 -Iv 0 
N -t 28.000000 -n 0 -e 9.716640
N -t 28.000000 -n 1 -e 9.557280
N -t 28.000000 -n 2 -e 9.497920
N -t 28.000000 -n 3 -e 9.379200
N -t 28.000000 -n 4 -e 9.060480
N -t 28.000000 -n 5 -e 9.119840
s -t 28.047815992 -Hs 3 -Hd 1 -Ni 3 -Nx 250.00 -Ny 0.00 -Nz -15.00 -Ne 9.379200 -Nl MAC -Nw --- -Ma 0 -Md 3000000 -Ms ffff0008 -Mt 0 -Is 5 -Id 0 -It vectorbasedforward -Il 50 -If 0 -Ii 5 -Iv 0 
r -t 28.121149326 -Hs 2 -Hd 1 -Ni 2 -Nx 290.00 -Ny 0.00 -Nz 15.00 -Ne 9.467271 -Nl MAC -Nw --- -Ma 0 -Md 3000000 -Ms ffff0008 -Mt 0 -Is 5 -Id 0 -It vectorbasedforward -Il 50 -If 0 -Ii 5 -Iv 0 
r -t 28.135542062 -Hs 4 -Hd 1 -Ni 4 -Nx 180.00 -Ny 0.00 -Nz 0.00 -Ne 9.029716 -Nl MAC -Nw --- -Ma 0 -Md 3000000 -Ms ffff0008 -Mt 0 -Is 5 -Id 0 -It vectorbasedforward -Il 50 -If 0 -Ii 5 -Iv 0 
N -t 29.000000 -n 0 -e 9.708640
N -t 29.000000 -n 1 -e 9.549280
N -t 29.000000 -n 2 -e 9.460240
N -t 29.000000 -n 3 -e 9.291520
N -t 29.000000 -n 4 -e 9.022800
N -t 29.000000 -n 5 -e 9.111840
s -t 29.040878299 -Hs 2 -Hd 1 -Ni 2 -Nx 290.00 -Ny 0.00 -Nz 15.00 -Ne 9.460240 -Nl MAC -Nw --- -Ma 0 -Md 2000000 -Ms ffff0008 -Mt 0 -Is 5 -Id 0 -It vectorbasedforward -Il 50 -If 0 -Ii 5 -Iv 0 
r -t 29.114211632 -Hs 3 -Hd 1 -Ni 3 -Nx 250.00 -Ny 0.00 -Nz -15.00 -Ne 9.260926 -Nl MAC -Nw --- -Ma 0 -Md 2000000 -Ms ffff0008 -Mt 0 -Is 5 -Id 0 -It vectorbasedforward -Il 50 -If 0 -Ii 5 -Iv 0 
r -t 29.128604369 -Hs 1 -Hd 1 -Ni 1 -Nx 360.00 -Ny 0.00 -Nz 0.00 -Ne 9.518571 -Nl MAC -Nw --- -Ma 0 -Md 2000000 -Ms ffff0008 -Mt 0 -Is 5 -Id 0 -It vectorbasedforward -Il 50 -If 0 -Ii 5 -Iv 0 
s -t 29.703702583 -Hs 1 -Hd 0 -Ni 1 -Nx 360.00 -Ny 0.00 -Nz 0.00 -Ne 9.518571 -Nl MAC -Nw --- -Ma 0 -Md 1000000 -Ms ffff0008 -Mt 0 -Is 5 -Id 0 -It vectorbasedforward -Il 50 -If 0 -Ii 5 -Iv 0 
r -t 29.791428654 -Hs 2 -Hd 0 -Ni 2 -Nx 290.00 -Ny 0.00 -Nz 15.00 -Ne 9.344549 -Nl MAC -Nw --- -Ma 0 -Md 1000000 -Ms ffff0008 -Mt 0 -Is 5 -Id 0 -It vectorbasedforward -Il 50 -If 0 -Ii 5 -Iv 0 
r -t 29.797035917 -Hs 0 -Hd 0 -Ni 0 -Nx 440.00 -Ny 0.00 -Nz 0.00 -Ne 9.672584 -Nl MAC -Nw --- -Ma 0 -Md 1000000 -Ms ffff0008 -Mt 0 -Is 5 -Id 0 -It vectorbasedforward -Il 50 -If 0 -Ii 5 -Iv 0 
N -t 30.000000 -n 0 -e 9.670960
N -t 30.000000 -n 1 -e 9.431920
N -t 30.000000 -n 2 -e 9.342880
N -t 30.000000 -n 3 -e 9.253840
N -t 30.000000 -n 4 -e 9.014800
N -t 30.000000 -n 5 -e 9.103840
N -t 31.000000 -n 0 -e 9.662960
N -t 31.000000 -n 1 -e 9.423920
N -t 31.000000 -n 2 -e 9.334880
N -t 31.000000 -n 3 -e 9.245840
N -t 31.000000 -n 4 -e 9.006800
N -t 31.000000 -n 5 -e 9.095840
s -t 31.330025000 -Hs 5 -Hd 4 -Ni 5 -Nx 140.00 -Ny 0.00 -Nz 0.00 -Ne 9.095840 -Nl MAC -Nw --- -Ma 0 -Md 5000000 -Ms ffff0008 -Mt 0 -Is 5 -Id 0 -It vectorbasedforward -Il 50 -If 0 -Ii 6 -Iv 0 
r -t 31.396691667 -Hs 4 -Hd 4 -Ni 4 -Nx 180.00 -Ny 0.00 -Nz 0.00 -Ne 8.973946 -Nl MAC -Nw --- -Ma 0 -Md 5000000 -Ms ffff0008 -Mt 0 -Is 5 -Id 0 -It vectorbasedforward -Il 50 -If 0 -Ii 6 -Iv 0 
N -t 32.000000 -n 0 -e 9.654960
N -t 32.000000 -n 1 -e 9.415920
N -t 32.000000 -n 2 -e 9.326880
N -t 32.000000 -n 3 -e 9.237840
N -t 32.000000 -n 4 -e 8.969120
N -t 32.000000 -n 5 -e 9.008160
s -t 32.251338336 -Hs 4 -Hd 2 -Ni 4 -Nx 180.00 -Ny 0.00 -Nz 0.00 -Ne 8.969120 -Nl MAC -Nw --- -Ma 0 -Md 4000000 -Ms ffff0008 -Mt 0 -Is 5 -Id 0 -It vectorbasedforward -Il 50 -If 0 -Ii 6 -Iv 0 
r -t 32.318005003 -Hs 5 -Hd 2 -Ni 5 -Nx 140.00 -Ny 0.00 -Nz 0.00 -Ne 8.975936 -Nl MAC -Nw --- -Ma 0 -Md 4000000 -Ms ffff0008 -Mt 0 -Is 5 -Id 0 -It vectorbasedforward -Il 50 -If 0 -Ii 6 -Iv 0 
N -t 33.000000 -n 0 -e 9.646960
N -t 33.000000 -n 1 -e 9.407920
N -t 33.000000 -n 2 -e 9.318880
N -t 33.000000 -n 3 -e 9.200160
N -t 33.000000 -n 4 -e 8.881440
N -t 33.000000 -n 5 -e 8.970480
N -t 34.000000 -n 0 -e 9.638960
N -t 34.000000 -n 1 -e 9.399920
N -t 34.000000 -n 2 -e 9.310880
N -t 34.000000 -n 3 -e 9.192160
N -t 34.000000 -n 4 -e 8.873440
N -t 34.000000 -n 5 -e 8.962480
N -t 35.000000 -n 0 -e 9.630960
N -t 35.000000 -n 1 -e 9.391920
N -t 35.000000 -n 2 -e 9.302880
N -t 35.000000 -n 3 -e 9.184160
N -t 35.000000 -n 4 -e 8.865440
N -t 35.000000 -n 5 -e 8.954480
N -t 36.000000 -n 0 -e 9.622960
N -t 36.000000 -n 1 -e 9.383920
N -t 36.000000 -n 2 -e 9.294880
N -t 36.000000 -n 3 -e 9.176160
N -t 36.000000 -n 4 -e 8.857440
N -t 36.000000 -n 5 -e 8.946480
s -t 36.330025000 -Hs 5 -Hd 4 -Ni 5 -Nx 140.00 -Ny 0.00 -Nz 0.00 -Ne 8.946480 -Nl MAC -Nw --- -Ma 0 -Md 5000000 -Ms ffff0008 -Mt 0 -Is 5 -Id 0 -It vectorbasedforward -Il 50 -If 0 -Ii 7 -Iv 0 
r -t 36.396691667 -Hs 4 -Hd 4 -Ni 4 -Nx 180.00 -Ny 0.00 -Nz 0.00 -Ne 8.824586 -Nl MAC -Nw --- -Ma 0 -Md 5000000 -Ms ffff0008 -Mt 0 -Is 5 -Id 0 -It vectorbasedforward -Il 50 -If 0 -Ii 7 -Iv 0 
N -t 37.000000 -n 0 -e 9.614960
N -t 37.000000 -n 1 -e 9.375920
N -t 37.000000 -n 2 -e 9.286880
N -t 37.000000 -n 3 -e 9.168160
N -t 37.000000 -n 4 -e 8.819760
N -t 37.000000 -n 5 -e 8.858800
s -t 37.251338336 -Hs 4 -Hd 2 -Ni 4 -Nx 180.00 -Ny 0.00 -Nz 0.00 -Ne 8.819760 -Nl MAC -Nw --- -Ma 0 -Md 4000000 -Ms ffff0008 -Mt 0 -Is 5 -Id 0 -It vectorbasedforward -Il 50 -If 0 -Ii 7 -Iv 0 
r -t 37.318005003 -Hs 5 -Hd 2 -Ni 5 -Nx 140.00 -Ny 0.00 -Nz 0.00 -Ne 8.826576 -Nl MAC -Nw --- -Ma 0 -Md 4000000 -Ms ffff0008 -Mt 0 -Is 5 -Id 0 -It vectorbasedforward -Il 50 -If 0 -Ii 7 -Iv 0 
N -t 38.000000 -n 0 -e 9.606960
N -t 38.000000 -n 1 -e 9.367920
N -t 38.000000 -n 2 -e 9.278880
N -t 38.000000 -n 3 -e 9.130480
N -t 38.000000 -n 4 -e 8.732080
N -t 38.000000 -n 5 -e 8.821120
N -t 39.000000 -n 0 -e 9.598960
N -t 39.000000 -n 1 -e 9.359920
N -t 39.000000 -n 2 -e 9.270880
N -t 39.000000 -n 3 -e 9.122480
N -t 39.000000 -n 4 -e 8.724080
N -t 39.000000 -n 5 -e 8.813120
N -t 40.000000 -n 0 -e 9.590960
N -t 40.000000 -n 1 -e 9.351920
N -t 40.000000 -n 2 -e 9.262880
N -t 40.000000 -n 3 -e 9.114480
N -t 40.000000 -n 4 -e 8.716080
N -t 40.000000 -n 5 -e 8.805120
N -t 41.000000 -n 0 -e 9.582960
N -t 41.000000 -n 1 -e 9.343920
N -t 41.000000 -n 2 -e 9.254880
N -t 41.000000 -n 3 -e 9.106480
N -t 41.000000 -n 4 -e 8.708080
N -t 41.000000 -n 5 -e 8.797120
s -t 41.330025000 -Hs 5 -Hd 4 -Ni 5 -Nx 140.00 -Ny 0.00 -Nz 0.00 -Ne 8.797120 -Nl MAC -Nw --- -Ma 0 -Md 5000000 -Ms ffff0008 -Mt 0 -Is 5 -Id 0 -It vectorbasedforward -Il 50 -If 0 -Ii 8 -Iv 0 
r -t 41.396691667 -Hs 4 -Hd 4 -Ni 4 -Nx 180.00 -Ny 0.00 -Nz 0.00 -Ne 8.675226 -Nl MAC -Nw --- -Ma 0 -Md 5000000 -Ms ffff0008 -Mt 0 -Is 5 -Id 0 -It vectorbasedforward -Il 50 -If 0 -Ii 8 -Iv 0 
N -t 42.000000 -n 0 -e 9.574960
N -t 42.000000 -n 1 -e 9.335920
N -t 42.000000 -n 2 -e 9.246880
N -t 42.000000 -n 3 -e 9.098480
N -t 42.000000 -n 4 -e 8.670400
N -t 42.000000 -n 5 -e 8.709440
s -t 42.251338336 -Hs 4 -Hd 2 -Ni 4 -Nx 180.00 -Ny 0.00 -Nz 0.00 -Ne 8.670400 -Nl MAC -Nw --- -Ma 0 -Md 4000000 -Ms ffff0008 -Mt 0 -Is 5 -Id 0 -It vectorbasedforward -Il 50 -If 0 -Ii 8 -Iv 0 
r -t 42.318005003 -Hs 5 -Hd 2 -Ni 5 -Nx 140.00 -Ny 0.00 -Nz 0.00 -Ne 8.677216 -Nl MAC -Nw --- -Ma 0 -Md 4000000 -Ms ffff0008 -Mt 0 -Is 5 -Id 0 -It vectorbasedforward -Il 50 -If 0 -Ii 8 -Iv 0 
N -t 43.000000 -n 0 -e 9.566960
N -t 43.000000 -n 1 -e 9.327920
N -t 43.000000 -n 2 -e 9.238880
N -t 43.000000 -n 3 -e 9.060800
N -t 43.000000 -n 4 -e 8.582720
N -t 43.000000 -n 5 -e 8.671760
N -t 44.000000 -n 0 -e 9.558960
N -t 44.000000 -n 1 -e 9.319920
N -t 44.000000 -n 2 -e 9.230880
N -t 44.000000 -n 3 -e 9.052800
N -t 44.000000 -n 4 -e 8.574720
N -t 44.000000 -n 5 -e 8.663760
N -t 45.000000 -n 0 -e 9.550960
N -t 45.000000 -n 1 -e 9.311920
N -t 45.000000 -n 2 -e 9.222880
N -t 45.000000 -n 3 -e 9.044800
N -t 45.000000 -n 4 -e 8.566720
N -t 45.000000 -n 5 -e 8.655760
N -t 46.000000 -n 0 -e 9.542960
N -t 46.000000 -n 1 -e 9.303920
N -t 46.000000 -n 2 -e 9.214880
N -t 46.000000 -n 3 -e 9.036800
N -t 46.000000 -n 4 -e 8.558720
N -t 46.000000 -n 5 -e 8.647760
s -t 46.330025000 -Hs 5 -Hd 4 -Ni 5 -Nx 140.00 -Ny 0.00 -Nz 0.00 -Ne 8.647760 -Nl MAC -Nw --- -Ma 0 -Md 5000000 -Ms ffff0008 -Mt 0 -Is 5 -Id 0 -It vectorbasedforward -Il 50 -If 0 -Ii 9 -Iv 0 
r -t 46.396691667 -Hs 4 -Hd 4 -Ni 4 -Nx 180.00 -Ny 0.00 -Nz 0.00 -Ne 8.525866 -Nl MAC -Nw --- -Ma 0 -Md 5000000 -Ms ffff0008 -Mt 0 -Is 5 -Id 0 -It vectorbasedforward -Il 50 -If 0 -Ii 9 -Iv 0 
N -t 47.000000 -n 0 -e 9.534960
N -t 47.000000 -n 1 -e 9.295920
N -t 47.000000 -n 2 -e 9.206880
N -t 47.000000 -n 3 -e 9.028800
N -t 47.000000 -n 4 -e 8.521040
N -t 47.000000 -n 5 -e 8.560080
s -t 47.251338336 -Hs 4 -Hd 2 -Ni 4 -Nx 180.00 -Ny 0.00 -Nz 0.00 -Ne 8.521040 -Nl MAC -Nw --- -Ma 0 -Md 4000000 -Ms ffff0008 -Mt 0 -Is 5 -Id 0 -It vectorbasedforward -Il 50 -If 0 -Ii 9 -Iv 0 
r -t 47.318005003 -Hs 5 -Hd 2 -Ni 5 -Nx 140.00 -Ny 0.00 -Nz 0.00 -Ne 8.527856 -Nl MAC -Nw --- -Ma 0 -Md 4000000 -Ms ffff0008 -Mt 0 -Is 5 -Id 0 -It vectorbasedforward -Il 50 -If 0 -Ii 9 -Iv 0 
r -t 47.339064406 -Hs 3 -Hd 2 -Ni 3 -Nx 250.00 -Ny 0.00 -Nz -15.00 -Ne 8.996407 -Nl MAC -Nw --- -Ma 0 -Md 4000000 -Ms ffff0008 -Mt 0 -Is 5 -Id 0 -It vectorbasedforward -Il 50 -If 0 -Ii 9 -Iv 0 
N -t 48.000000 -n 0 -e 9.526960
N -t 48.000000 -n 1 -e 9.287920
N -t 48.000000 -n 2 -e 9.198880
N -t 48.000000 -n 3 -e 8.991120
N -t 48.000000 -n 4 -e 8.433360
N -t 48.000000 -n 5 -e 8.522400
s -t 48.047815992 -Hs 3 -Hd 1 -Ni 3 -Nx 250.00 -Ny 0.00 -Nz -15.00 -Ne 8.991120 -Nl MAC -Nw --- -Ma 0 -Md 3000000 -Ms ffff0008 -Mt 0 -Is 5 -Id 0 -It vectorbasedforward -Il 50 -If 0 -Ii 9 -Iv 0 
r -t 48.121149326 -Hs 2 -Hd 1 -Ni 2 -Nx 290.00 -Ny 0.00 -Nz 15.00 -Ne 9.168231 -Nl MAC -Nw --- -Ma 0 -Md 3000000 -Ms ffff0008 -Mt 0 -Is 5 -Id 0 -It vectorbasedforward -Il 50 -If 0 -Ii 9 -Iv 0 
r -t 48.135542062 -Hs 4 -Hd 1 -Ni 4 -Nx 180.00 -Ny 0.00 -Nz 0.00 -Ne 8.402596 -Nl MAC -Nw --- -Ma 0 -Md 3000000 -Ms ffff0008 -Mt 0 -Is 5 -Id 0 -It vectorbasedforward -Il 50 -If 0 -Ii 9 -Iv 0 
N -t 49.000000 -n 0 -e 9.518960
N -t 49.000000 -n 1 -e 9.279920
N -t 49.000000 -n 2 -e 9.161200
N -t 49.000000 -n 3 -e 8.903440
N -t 49.000000 -n 4 -e 8.395680
N -t 49.000000 -n 5 -e 8.514400
s -t 49.040878299 -Hs 2 -Hd 1 -Ni 2 -Nx 290.00 -Ny 0.00 -Nz 15.00 -Ne 9.161200 -Nl MAC -Nw --- -Ma 0 -Md 2000000 -Ms ffff0008 -Mt 0 -Is 5 -Id 0 -It vectorbasedforward -Il 50 -If 0 -Ii 9 -Iv 0 
r -t 49.128604369 -Hs 1 -Hd 1 -Ni 1 -Nx 360.00 -Ny 0.00 -Nz 0.00 -Ne 9.249211 -Nl MAC -Nw --- -Ma 0 -Md 2000000 -Ms ffff0008 -Mt 0 -Is 5 -Id 0 -It vectorbasedforward -Il 50 -If 0 -Ii 9 -Iv 0 
s -t 49.703702583 -Hs 1 -Hd 0 -Ni 1 -Nx 360.00 -Ny 0.00 -Nz 0.00 -Ne 9.249211 -Nl MAC -Nw --- -Ma 0 -Md 1000000 -Ms ffff0008 -Mt 0 -Is 5 -Id 0 -It vectorbasedforward -Il 50 -If 0 -Ii 9 -Iv 0 
r -t 49.791428654 -Hs 2 -Hd 0 -Ni 2 -Nx 290.00 -Ny 0.00 -Nz 15.00 -Ne 9.045509 -Nl MAC -Nw --- -Ma 0 -Md 1000000 -Ms ffff0008 -Mt 0 -Is 5 -Id 0 -It vectorbasedforward -Il 50 -If 0 -Ii 9 -Iv 0 
r -t 49.797035917 -Hs 0 -Hd 0 -Ni 0 -Nx 440.00 -Ny 0.00 -Nz 0.00 -Ne 9.482904 -Nl MAC -Nw --- -Ma 0 -Md 1000000 -Ms ffff0008 -Mt 0 -Is 5 -Id 0 -It vectorbasedforward -Il 50 -If 0 -Ii 9 -Iv 0 
N -t 50.000000 -n 0 -e 9.481280
N -t 50.000000 -n 1 -e 9.162560
N -t 50.000000 -n 2 -e 9.043840
N -t 50.000000 -n 3 -e 8.865760
N -t 50.000000 -n 4 -e 8.387680
N -t 50.000000 -n 5 -e 8.506400
N -t 51.000000 -n 0 -e 9.473280
N -t 51.000000 -n 1 -e 9.154560
N -t 51.000000 -n 2 -e 9.035840
N -t 51.000000 -n 3 -e 8.857760
N -t 51.000000 -n 4 -e 8.379680
N -t 51.000000 -n 5 -e 8.498400
s -t 51.330025000 -Hs 5 -Hd 4 -Ni 5 -Nx 140.00 -Ny 0.00 -Nz 0.00 -Ne 8.498400 -Nl MAC -Nw --- -Ma 0 -Md 5000000 -Ms ffff0008 -Mt 0 -Is 5 -Id 0 -It vectorbasedforward -Il 50 -If 0 -Ii 10 -Iv 0 
r -t 51.396691667 -Hs 4 -Hd 4 -Ni 4 -Nx 180.00 -Ny 0.00 -Nz 0.00 -Ne 8.346826 -Nl MAC -Nw --- -Ma 0 -Md 5000000 -Ms ffff0008 -Mt 0 -Is 5 -Id 0 -It vectorbasedforward -Il 50 -If 0 -Ii 10 -Iv 0 
N -t 52.000000 -n 0 -e 9.465280
N -t 52.000000 -n 1 -e 9.146560
N -t 52.000000 -n 2 -e 9.027840
N -t 52.000000 -n 3 -e 8.849760
N -t 52.000000 -n 4 -e 8.342000
N -t 52.000000 -n 5 -e 8.410720
s -t 52.251338336 -Hs 4 -Hd 2 -Ni 4 -Nx 180.00 -Ny 0.00 -Nz 0.00 -Ne 8.342000 -Nl MAC -Nw --- -Ma 0 -Md 4000000 -Ms ffff0008 -Mt 0 -Is 5 -Id 0 -It vectorbasedforward -Il 50 -If 0 -Ii 10 -Iv 0 
r -t 52.318005003 -Hs 5 -Hd 2 -Ni 5 -Nx 140.00 -Ny 0.00 -Nz 0.00 -Ne 8.378496 -Nl MAC -Nw --- -Ma 0 -Md 4000000 -Ms ffff0008 -Mt 0 -Is 5 -Id 0 -It vectorbasedforward -Il 50 -If 0 -Ii 10 -Iv 0 
r -t 52.339064406 -Hs 3 -Hd 2 -Ni 3 -Nx 250.00 -Ny 0.00 -Nz -15.00 -Ne 8.817367 -Nl MAC -Nw --- -Ma 0 -Md 4000000 -Ms ffff0008 -Mt 0 -Is 5 -Id 0 -It vectorbasedforward -Il 50 -If 0 -Ii 10 -Iv 0 
N -t 53.000000 -n 0 -e 9.457280
N -t 53.000000 -n 1 -e 9.138560
N -t 53.000000 -n 2 -e 9.019840
N -t 53.000000 -n 3 -e 8.812080
N -t 53.000000 -n 4 -e 8.254320
N -t 53.000000 -n 5 -e 8.373040
s -t 53.047815992 -Hs 3 -Hd 1 -Ni 3 -Nx 250.00 -Ny 0.00 -Nz -15.00 -Ne 8.812080 -Nl MAC -Nw --- -Ma 0 -Md 3000000 -Ms ffff0008 -Mt 0 -Is 5 -Id 0 -It vectorbasedforward -Il 50 -If 0 -Ii 10 -Iv 0 
r -t 53.121149326 -Hs 2 -Hd 1 -Ni 2 -Nx 290.00 -Ny 0.00 -Nz 15.00 -Ne 8.989191 -Nl MAC -Nw --- -Ma 0 -Md 3000000 -Ms ffff0008 -Mt 0 -Is 5 -Id 0 -It vectorbasedforward -Il 50 -If 0 -Ii 10 -Iv 0 
r -t 53.135542062 -Hs 4 -Hd 1 -Ni 4 -Nx 180.00 -Ny 0.00 -Nz 0.00 -Ne 8.223556 -Nl MAC -Nw --- -Ma 0 -Md 3000000 -Ms ffff0008 -Mt 0 -Is 5 -Id 0 -It vectorbasedforward -Il 50 -If 0 -Ii 10 -Iv 0 
N -t 54.000000 -n 0 -e 9.449280
N -t 54.000000 -n 1 -e 9.130560
N -t 54.000000 -n 2 -e 8.982160
N -t 54.000000 -n 3 -e 8.724400
N -t 54.000000 -n 4 -e 8.216640
N -t 54.000000 -n 5 -e 8.365040
s -t 54.040878299 -Hs 2 -Hd 1 -Ni 2 -Nx 290.00 -Ny 0.00 -Nz 15.00 -Ne 8.982160 -Nl MAC -Nw --- -Ma 0 -Md 2000000 -Ms ffff0008 -Mt 0 -Is 5 -Id 0 -It vectorbasedforward -Il 50 -If 0 -Ii 10 -Iv 0 
r -t 54.114211632 -Hs 3 -Hd 1 -Ni 3 -Nx 250.00 -Ny 0.00 -Nz -15.00 -Ne 8.693806 -Nl MAC -Nw --- -Ma 0 -Md 2000000 -Ms ffff0008 -Mt 0 -Is 5 -Id 0 -It vectorbasedforward -Il 50 -If 0 -Ii 10 -Iv 0 
r -t 54.128604369 -Hs 1 -Hd 1 -Ni 1 -Nx 360.00 -Ny 0.00 -Nz 0.00 -Ne 9.099851 -Nl MAC -Nw --- -Ma 0 -Md 2000000 -Ms ffff0008 -Mt 0 -Is 5 -Id 0 -It vectorbasedforward -Il 50 -If 0 -Ii 10 -Iv 0 
s -t 54.703702583 -Hs 1 -Hd 0 -Ni 1 -Nx 360.00 -Ny 0.00 -Nz 0.00 -Ne 9.099851 -Nl MAC -Nw --- -Ma 0 -Md 1000000 -Ms ffff0008 -Mt 0 -Is 5 -Id 0 -It vectorbasedforward -Il 50 -If 0 -Ii 10 -Iv 0 
r -t 54.791428654 -Hs 2 -Hd 0 -Ni 2 -Nx 290.00 -Ny 0.00 -Nz 15.00 -Ne 8.866469 -Nl MAC -Nw --- -Ma 0 -Md 1000000 -Ms ffff0008 -Mt 0 -Is 5 -Id 0 -It vectorbasedforward -Il 50 -If 0 -Ii 10 -Iv 0 
r -t 54.797035917 -Hs 0 -Hd 0 -Ni 0 -Nx 440.00 -Ny 0.00 -Nz 0.00 -Ne 9.413224 -Nl MAC -Nw --- -Ma 0 -Md 1000000 -Ms ffff0008 -Mt 0 -Is 5 -Id 0 -It vectorbasedforward -Il 50 -If 0 -Ii 10 -Iv 0 
N -t 55.000000 -n 0 -e 9.411600
N -t 55.000000 -n 1 -e 9.013200
N -t 55.000000 -n 2 -e 8.864800
N -t 55.000000 -n 3 -e 8.686720
N -t 55.000000 -n 4 -e 8.208640
N -t 55.000000 -n 5 -e 8.357040
N -t 56.000000 -n 0 -e 9.403600
N -t 56.000000 -n 1 -e 9.005200
N -t 56.000000 -n 2 -e 8.856800
N -t 56.000000 -n 3 -e 8.678720
N -t 56.000000 -n 4 -e 8.200640
N -t 56.000000 -n 5 -e 8.349040
s -t 56.330025000 -Hs 5 -Hd 4 -Ni 5 -Nx 140.00 -Ny 0.00 -Nz 0.00 -Ne 8.349040 -Nl MAC -Nw --- -Ma 0 -Md 5000000 -Ms ffff0008 -Mt 0 -Is 5 -Id 0 -It vectorbasedforward -Il 50 -If 0 -Ii 11 -Iv 0 
r -t 56.396691667 -Hs 4 -Hd 4 -Ni 4 -Nx 180.00 -Ny 0.00 -Nz 0.00 -Ne 8.167786 -Nl MAC -Nw --- -Ma 0 -Md 5000000 -Ms ffff0008 -Mt 0 -Is 5 -Id 0 -It vectorbasedforward -Il 50 -If 0 -Ii 11 -Iv 0 
N -t 57.000000 -n 0 -e 9.395600
N -t 57.000000 -n 1 -e 8.997200
N -t 57.000000 -n 2 -e 8.848800
N -t 57.000000 -n 3 -e 8.670720
N -t 57.000000 -n 4 -e 8.162960
N -t 57.000000 -n 5 -e 8.261360
s -t 57.251338336 -Hs 4 -Hd 2 -Ni 4 -Nx 180.00 -Ny 0.00 -Nz 0.00 -Ne 8.162960 -Nl MAC -Nw --- -Ma 0 -Md 4000000 -Ms ffff0008 -Mt 0 -Is 5 -Id 0 -It vectorbasedforward -Il 50 -If 0 -Ii 11 -Iv 0 
r -t 57.318005003 -Hs 5 -Hd 2 -Ni 5 -Nx 140.00 -Ny 0.00 -Nz 0.00 -Ne 8.229136 -Nl MAC -Nw --- -Ma 0 -Md 4000000 -Ms ffff0008 -Mt 0 -Is 5 -Id 0 -It vectorbasedforward -Il 50 -If 0 -Ii 11 -Iv 0 
r -t 57.339064406 -Hs 3 -Hd 2 -Ni 3 -Nx 250.00 -Ny 0.00 -Nz -15.00 -Ne 8.638327 -Nl MAC -Nw --- -Ma 0 -Md 4000000 -Ms ffff0008 -Mt 0 -Is 5 -Id 0 -It vectorbasedforward -Il 50 -If 0 -Ii 11 -Iv 0 
N -t 58.000000 -n 0 -e 9.387600
N -t 58.000000 -n 1 -e 8.989200
N -t 58.000000 -n 2 -e 8.840800
N -t 58.000000 -n 3 -e 8.633040
N -t 58.000000 -n 4 -e 8.075280
N -t 58.000000 -n 5 -e 8.223680
s -t 58.047815992 -Hs 3 -Hd 1 -Ni 3 -Nx 250.00 -Ny 0.00 -Nz -15.00 -Ne 8.633040 -Nl MAC -Nw --- -Ma 0 -Md 3000000 -Ms ffff0008 -Mt 0 -Is 5 -Id 0 -It vectorbasedforward -Il 50 -If 0 -Ii 11 -Iv 0 
r -t 58.121149326 -Hs 2 -Hd 1 -Ni 2 -Nx 290.00 -Ny 0.00 -Nz 15.00 -Ne 8.810151 -Nl MAC -Nw --- -Ma 0 -Md 3000000 -Ms ffff0008 -Mt 0 -Is 5 -Id 0 -It vectorbasedforward -Il 50 -If 0 -Ii 11 -Iv 0 