N -t 1.000000 -n 0 -e 999.992000
N -t 1.000000 -n 1 -e 999.992000
N -t 1.000000 -n 2 -e 999.992000
N -t 1.000000 -n 3 -e 999.992000
N -t 1.000000 -n 4 -e 999.992000
N -t 1.000000 -n 5 -e 999.992000
N -t 1.000000 -n 6 -e 999.992000
r -t 1.330000000 -Hs 6 -Hd -2 -Ni 6 -Nx 130.00 -Ny 0.00 -Nz 0.00 -Ne 999.992000 -Nl RTR -Nw --- -Ma 0 -Md 0 -Ms 0 -Mt 0 -Is 6 -Id 0 -It vectorbasedforward -Il 500 -If 0 -Ii 0 -Iv 0 
r -t 1.519091850 -Hs 5 -Hd -1 -Ni 5 -Nx 210.00 -Ny 0.00 -Nz 0.00 -Ne 999.986700 -Nl RTR -Nw --- -Ma 0 -Md 6000000 -Ms ffff0008 -Mt 0 -Is 6 -Id 0 -It vectorbasedforward -Il 500 -If 0 -Ii 0 -Iv 0 
r -t 1.572451850 -Hs 6 -Hd 6 -Ni 6 -Nx 130.00 -Ny 0.00 -Nz 0.00 -Ne 999.984463 -Nl RTR -Nw --- -Ma 0 -Md 0 -Ms 0 -Mt 0 -Is 0 -Id 0 -It UW-Aloha-ACK -Il 53 -If 0 -Ii 0 -Iv 0 
N -t 2.000000 -n 0 -e 999.984000
N -t 2.000000 -n 1 -e 999.984000
N -t 2.000000 -n 2 -e 999.984000
N -t 2.000000 -n 3 -e 999.983980
N -t 2.000000 -n 4 -e 999.983980
N -t 2.000000 -n 5 -e 999.979915
N -t 2.000000 -n 6 -e 999.981043
r -t 2.047830112 -Hs 6 -Hd -1 -Ni 6 -Nx 130.00 -Ny 0.00 -Nz 0.00 -Ne 999.979566 -Nl RTR -Nw --- -Ma 0 -Md 5000000 -Ms ffff0008 -Mt 0 -Is 6 -Id 0 -It vectorbasedforward -Il 500 -If 0 -Ii 0 -Iv 0 
r -t 2.055046115 -Hs 3 -Hd -1 -Ni 3 -Nx 290.00 -Ny -43.00 -Nz 0.00 -Ne 999.982393 -Nl RTR -Nw --- -Ma 0 -Md 5000000 -Ms ffff0008 -Mt 0 -Is 6 -Id 0 -It vectorbasedforward -Il 500 -If 0 -Ii 0 -Iv 0 
r -t 2.115622119 -Hs 5 -Hd 5 -Ni 5 -Nx 210.00 -Ny 0.00 -Nz 0.00 -Ne 999.978971 -Nl RTR -Nw --- -Ma 0 -Md 0 -Ms 0 -Mt 0 -Is 0 -Id 0 -It UW-Aloha-ACK -Il 53 -If 0 -Ii 0 -Iv 0 
N -t 3.000000 -n 0 -e 999.976000
N -t 3.000000 -n 1 -e 999.976000
N -t 3.000000 -n 2 -e 999.975980
N -t 3.000000 -n 3 -e 999.974833
N -t 3.000000 -n 4 -e 999.974886
N -t 3.000000 -n 5 -e 999.971895
N -t 3.000000 -n 6 -e 999.971948
r -t 3.896726406 -Hs 2 -Hd -1 -Ni 2 -Nx 380.00 -Ny -40.00 -Nz 0.00 -Ne 999.967659 -Nl RTR -Nw --- -Ma 0 -Md 3000000 -Ms ffff0008 -Mt 0 -Is 6 -Id 0 -It vectorbasedforward -Il 500 -If 0 -Ii 0 -Iv 0 
r -t 3.897242419 -Hs 5 -Hd -1 -Ni 5 -Nx 210.00 -Ny 0.00 -Nz 0.00 -Ne 999.963623 -Nl RTR -Nw --- -Ma 0 -Md 3000000 -Ms ffff0008 -Mt 0 -Is 6 -Id 0 -It vectorbasedforward -Il 500 -If 0 -Ii 0 -Iv 0 
r -t 3.956786397 -Hs 3 -Hd 3 -Ni 3 -Nx 290.00 -Ny -43.00 -Nz 0.00 -Ne 999.964221 -Nl RTR -Nw --- -Ma 0 -Md 0 -Ms 0 -Mt 0 -Is 0 -Id 0 -It UW-Aloha-ACK -Il 53 -If 0 -Ii 0 -Iv 0 
N -t 4.000000 -n 0 -e 999.967980
N -t 4.000000 -n 1 -e 999.968000
N -t 4.000000 -n 2 -e 999.966833
N -t 4.000000 -n 3 -e 999.963876
N -t 4.000000 -n 4 -e 999.966886
N -t 4.000000 -n 5 -e 999.962801
N -t 4.000000 -n 6 -e 999.963948
r -t 4.672609492 -Hs 0 -Hd -1 -Ni 0 -Nx 415.00 -Ny 0.00 -Nz 0.00 -Ne 999.961452 -Nl RTR -Nw --- -Ma 0 -Md 2000000 -Ms ffff0008 -Mt 0 -Is 6 -Id 0 -It vectorbasedforward -Il 500 -If 0 -Ii 0 -Iv 0 
r -t 4.672609492 -Hs 0 -Hd -2 -Ni 0 -Nx 415.00 -Ny 0.00 -Nz 0.00 -Ne 999.961452 -Nl RTR -Nw --- -Ma 0 -Md 0 -Ms 0 -Mt 0 -Is 0 -Id 6 -It vectorbasedforward -Il 0 -If 0 -Ii 0 -Iv 32 
r -t 4.672609492 -Hs 0 -Hd -2 -Ni 0 -Nx 415.00 -Ny 0.00 -Nz 0.00 -Ne 999.961452 -Nl RTR -Nw --- -Ma 0 -Md 0 -Ms 0 -Mt 0 -Is 0 -Id 0 -It vectorbasedforward -Il 0 -If 0 -Ii 1 -Iv 32 
r -t 4.697208996 -Hs 3 -Hd -1 -Ni 3 -Nx 290.00 -Ny -43.00 -Nz 0.00 -Ne 999.957204 -Nl RTR -Nw --- -Ma 0 -Md 2000000 -Ms ffff0008 -Mt 0 -Is 6 -Id 0 -It vectorbasedforward -Il 500 -If 0 -Ii 0 -Iv 0 
r -t 4.708069978 -Hs 2 -Hd 2 -Ni 2 -Nx 380.00 -Ny -40.00 -Nz 0.00 -Ne 999.958211 -Nl RTR -Nw --- -Ma 0 -Md 0 -Ms 0 -Mt 0 -Is 0 -Id 0 -It UW-Aloha-ACK -Il 53 -If 0 -Ii 0 -Iv 0 
N -t 5.000000 -n 0 -e 999.958833
N -t 5.000000 -n 1 -e 999.959980
N -t 5.000000 -n 2 -e 999.955876
N -t 5.000000 -n 3 -e 999.954781
N -t 5.000000 -n 4 -e 999.958886
N -t 5.000000 -n 5 -e 999.954801
N -t 5.000000 -n 6 -e 999.955948
N -t 6.000000 -n 0 -e 999.950833
N -t 6.000000 -n 1 -e 999.951980
N -t 6.000000 -n 2 -e 999.947876
N -t 6.000000 -n 3 -e 999.946781
N -t 6.000000 -n 4 -e 999.950886
N -t 6.000000 -n 5 -e 999.946801
N -t 6.000000 -n 6 -e 999.947948
r -t 6.330000000 -Hs 6 -Hd -2 -Ni 6 -Nx 130.00 -Ny 0.00 -Nz 0.00 -Ne 999.947948 -Nl RTR -Nw --- -Ma 0 -Md 0 -Ms 0 -Mt 0 -Is 6 -Id 0 -It vectorbasedforward -Il 500 -If 0 -Ii 1 -Iv 0 
r -t 6.414617169 -Hs 5 -Hd 5 -Ni 5 -Nx 210.00 -Ny 0.00 -Nz 0.00 -Ne 999.942337 -Nl RTR -Nw --- -Ma 0 -Md 6000000 -Ms 8 -Mt 0 -Is 6 -Id 0 -It vectorbasedforward -Il 500 -If 0 -Ii 1 -Iv 0 
r -t 6.467977169 -Hs 6 -Hd 6 -Ni 6 -Nx 130.00 -Ny 0.00 -Nz 0.00 -Ne 999.941248 -Nl RTR -Nw --- -Ma 0 -Md 0 -Ms 0 -Mt 0 -Is 0 -Id 0 -It UW-Aloha-ACK -Il 53 -If 0 -Ii 0 -Iv 0 
N -t 7.000000 -n 0 -e 999.942833
N -t 7.000000 -n 1 -e 999.943980
N -t 7.000000 -n 2 -e 999.939876
N -t 7.000000 -n 3 -e 999.938762
N -t 7.000000 -n 4 -e 999.942866
N -t 7.000000 -n 5 -e 999.937654
N -t 7.000000 -n 6 -e 999.936991
r -t 7.852394893 -Hs 3 -Hd 3 -Ni 3 -Nx 290.00 -Ny -43.00 -Nz 0.00 -Ne 999.930795 -Nl RTR -Nw --- -Ma 0 -Md 5000000 -Ms 8 -Mt 0 -Is 6 -Id 0 -It vectorbasedforward -Il 500 -If 0 -Ii 1 -Iv 0 
r -t 7.912970896 -Hs 5 -Hd 5 -Ni 5 -Nx 210.00 -Ny 0.00 -Nz 0.00 -Ne 999.927393 -Nl RTR -Nw --- -Ma 0 -Md 0 -Ms 0 -Mt 0 -Is 0 -Id 0 -It UW-Aloha-ACK -Il 53 -If 0 -Ii 0 -Iv 0 
N -t 8.000000 -n 0 -e 999.934833
N -t 8.000000 -n 1 -e 999.935980
N -t 8.000000 -n 2 -e 999.931856
N -t 8.000000 -n 3 -e 999.929614
N -t 8.000000 -n 4 -e 999.933772
N -t 8.000000 -n 5 -e 999.926697
N -t 8.000000 -n 6 -e 999.927897
N -t 9.000000 -n 0 -e 999.926833
N -t 9.000000 -n 1 -e 999.927980
N -t 9.000000 -n 2 -e 999.923856
N -t 9.000000 -n 3 -e 999.921614
N -t 9.000000 -n 4 -e 999.925772
N -t 9.000000 -n 5 -e 999.918697
N -t 9.000000 -n 6 -e 999.919897
r -t 9.606775285 -Hs 2 -Hd 2 -Ni 2 -Nx 380.00 -Ny -40.00 -Nz 0.00 -Ne 999.917854 -Nl RTR -Nw --- -Ma 0 -Md 3000000 -Ms 8 -Mt 0 -Is 6 -Id 0 -It vectorbasedforward -Il 500 -If 0 -Ii 1 -Iv 0 
r -t 9.666835276 -Hs 3 -Hd 3 -Ni 3 -Nx 290.00 -Ny -43.00 -Nz 0.00 -Ne 999.913322 -Nl RTR -Nw --- -Ma 0 -Md 0 -Ms 0 -Mt 0 -Is 0 -Id 0 -It UW-Aloha-ACK -Il 53 -If 0 -Ii 0 -Iv 0 
N -t 10.000000 -n 0 -e 999.918813
N -t 10.000000 -n 1 -e 999.919980
N -t 10.000000 -n 2 -e 999.914708
N -t 10.000000 -n 3 -e 999.910657
N -t 10.000000 -n 4 -e 999.917772
N -t 10.000000 -n 5 -e 999.909602
N -t 10.000000 -n 6 -e 999.911897
r -t 10.382658370 -Hs 0 -Hd 0 -Ni 0 -Nx 415.00 -Ny 0.00 -Nz 0.00 -Ne 999.914605 -Nl RTR -Nw --- -Ma 0 -Md 2000000 -Ms 8 -Mt 0 -Is 6 -Id 0 -It vectorbasedforward -Il 500 -If 0 -Ii 1 -Iv 0 
r -t 10.382658370 -Hs 0 -Hd -2 -Ni 0 -Nx 415.00 -Ny 0.00 -Nz 0.00 -Ne 999.914605 -Nl RTR -Nw --- -Ma 0 -Md 0 -Ms 0 -Mt 0 -Is 0 -Id 6 -It vectorbasedforward -Il 0 -If 0 -Ii 2 -Iv 32 
r -t 10.382658370 -Hs 0 -Hd -2 -Ni 0 -Nx 415.00 -Ny 0.00 -Nz 0.00 -Ne 999.914605 -Nl RTR -Nw --- -Ma 0 -Md 0 -Ms 0 -Mt 0 -Is 0 -Id 0 -It vectorbasedforward -Il 0 -If 0 -Ii 3 -Iv 32 
r -t 10.418118856 -Hs 2 -Hd 2 -Ni 2 -Nx 380.00 -Ny -40.00 -Nz 0.00 -Ne 999.908406 -Nl RTR -Nw --- -Ma 0 -Md 0 -Ms 0 -Mt 0 -Is 0 -Id 0 -It UW-Aloha-ACK -Il 53 -If 0 -Ii 0 -Iv 0 
N -t 11.000000 -n 0 -e 999.909666
N -t 11.000000 -n 1 -e 999.911960
N -t 11.000000 -n 2 -e 999.903751
N -t 11.000000 -n 3 -e 999.901563
N -t 11.000000 -n 4 -e 999.909772
N -t 11.000000 -n 5 -e 999.901602
N -t 11.000000 -n 6 -e 999.903897
r -t 11.330000000 -Hs 6 -Hd -2 -Ni 6 -Nx 130.00 -Ny 0.00 -Nz 0.00 -Ne 999.903897 -Nl RTR -Nw --- -Ma 0 -Md 0 -Ms 0 -Mt 0 -Is 6 -Id 0 -It vectorbasedforward -Il 500 -If 0 -Ii 2 -Iv 0 
r -t 11.875366078 -Hs 5 -Hd 5 -Ni 5 -Nx 210.00 -Ny 0.00 -Nz 0.00 -Ne 999.893452 -Nl RTR -Nw --- -Ma 0 -Md 6000000 -Ms 8 -Mt 0 -Is 6 -Id 0 -It vectorbasedforward -Il 500 -If 0 -Ii 2 -Iv 0 
r -t 11.928726078 -Hs 6 -Hd 6 -Ni 6 -Nx 130.00 -Ny 0.00 -Nz 0.00 -Ne 999.893510 -Nl RTR -Nw --- -Ma 0 -Md 0 -Ms 0 -Mt 0 -Is 0 -Id 0 -It UW-Aloha-ACK -Il 53 -If 0 -Ii 0 -Iv 0 
N -t 12.000000 -n 0 -e 999.901666
N -t 12.000000 -n 1 -e 999.903960
N -t 12.000000 -n 2 -e 999.895751
N -t 12.000000 -n 3 -e 999.893543
N -t 12.000000 -n 4 -e 999.901752
N -t 12.000000 -n 5 -e 999.892455
N -t 12.000000 -n 6 -e 999.892940
r -t 12.411320344 -Hs 3 -Hd 3 -Ni 3 -Nx 290.00 -Ny -43.00 -Nz 0.00 -Ne 999.889105 -Nl RTR -Nw --- -Ma 0 -Md 5000000 -Ms 8 -Mt 0 -Is 6 -Id 0 -It vectorbasedforward -Il 500 -If 0 -Ii 2 -Iv 0 
r -t 12.471896348 -Hs 5 -Hd 5 -Ni 5 -Nx 210.00 -Ny 0.00 -Nz 0.00 -Ne 999.885723 -Nl RTR -Nw --- -Ma 0 -Md 0 -Ms 0 -Mt 0 -Is 0 -Id 0 -It UW-Aloha-ACK -Il 53 -If 0 -Ii 0 -Iv 0 
N -t 13.000000 -n 0 -e 999.893666
N -t 13.000000 -n 1 -e 999.895960
N -t 13.000000 -n 2 -e 999.887731
N -t 13.000000 -n 3 -e 999.884396
N -t 13.000000 -n 4 -e 999.892658
N -t 13.000000 -n 5 -e 999.881498
N -t 13.000000 -n 6 -e 999.883845
r -t 13.278838387 -Hs 2 -Hd 2 -Ni 2 -Nx 380.00 -Ny -40.00 -Nz 0.00 -Ne 999.884353 -Nl RTR -Nw --- -Ma 0 -Md 3000000 -Ms 8 -Mt 0 -Is 6 -Id 0 -It vectorbasedforward -Il 500 -If 0 -Ii 2 -Iv 0 
r -t 13.338898378 -Hs 3 -Hd 3 -Ni 3 -Nx 290.00 -Ny -43.00 -Nz 0.00 -Ne 999.878727 -Nl RTR -Nw --- -Ma 0 -Md 0 -Ms 0 -Mt 0 -Is 0 -Id 0 -It UW-Aloha-ACK -Il 53 -If 0 -Ii 0 -Iv 0 
N -t 14.000000 -n 0 -e 999.885646
N -t 14.000000 -n 1 -e 999.887960
N -t 14.000000 -n 2 -e 999.878584
N -t 14.000000 -n 3 -e 999.873438
N -t 14.000000 -n 4 -e 999.884658
N -t 14.000000 -n 5 -e 999.872403
N -t 14.000000 -n 6 -e 999.875845
N -t 15.000000 -n 0 -e 999.877646
N -t 15.000000 -n 1 -e 999.879960
N -t 15.000000 -n 2 -e 999.870584
N -t 15.000000 -n 3 -e 999.865438
N -t 15.000000 -n 4 -e 999.876658
N -t 15.000000 -n 5 -e 999.864403
N -t 15.000000 -n 6 -e 999.867845
N -t 16.000000 -n 0 -e 999.869646
N -t 16.000000 -n 1 -e 999.871960
N -t 16.000000 -n 2 -e 999.862584
N -t 16.000000 -n 3 -e 999.857438
N -t 16.000000 -n 4 -e 999.868658
N -t 16.000000 -n 5 -e 999.856403
N -t 16.000000 -n 6 -e 999.859845
r -t 16.330000000 -Hs 6 -Hd -2 -Ni 6 -Nx 130.00 -Ny 0.00 -Nz 0.00 -Ne 999.859845 -Nl RTR -Nw --- -Ma 0 -Md 0 -Ms 0 -Mt 0 -Is 6 -Id 0 -It vectorbasedforward -Il 500 -If 0 -Ii 3 -Iv 0 
N -t 17.000000 -n 0 -e 999.861646
N -t 17.000000 -n 1 -e 999.863960
N -t 17.000000 -n 2 -e 999.854584
N -t 17.000000 -n 3 -e 999.849438
N -t 17.000000 -n 4 -e 999.860658
N -t 17.000000 -n 5 -e 999.848403
N -t 17.000000 -n 6 -e 999.851845
r -t 17.056805041 -Hs 5 -Hd 5 -Ni 5 -Nx 210.00 -Ny 0.00 -Nz 0.00 -Ne 999.846802 -Nl RTR -Nw --- -Ma 0 -Md 6000000 -Ms 8 -Mt 0 -Is 6 -Id 0 -It vectorbasedforward -Il 500 -If 0 -Ii 3 -Iv 0 
r -t 17.110165041 -Hs 6 -Hd 6 -Ni 6 -Nx 130.00 -Ny 0.00 -Nz 0.00 -Ne 999.848007 -Nl RTR -Nw --- -Ma 0 -Md 0 -Ms 0 -Mt 0 -Is 0 -Id 0 -It UW-Aloha-ACK -Il 53 -If 0 -Ii 0 -Iv 0 
N -t 18.000000 -n 0 -e 999.853646
N -t 18.000000 -n 1 -e 999.855960
N -t 18.000000 -n 2 -e 999.846584
N -t 18.000000 -n 3 -e 999.841419
N -t 18.000000 -n 4 -e 999.852638
N -t 18.000000 -n 5 -e 999.839256
N -t 18.000000 -n 6 -e 999.840888
r -t 18.071909682 -Hs 0 -Hd 0 -Ni 0 -Nx 415.00 -Ny 0.00 -Nz 0.00 -Ne 999.851923 -Nl RTR -Nw --- -Ma 0 -Md 2000000 -Ms 8 -Mt 0 -Is 6 -Id 0 -It vectorbasedforward -Il 500 -If 0 -Ii 2 -Iv 0 
r -t 18.071909682 -Hs 0 -Hd -2 -Ni 0 -Nx 415.00 -Ny 0.00 -Nz 0.00 -Ne 999.851923 -Nl RTR -Nw --- -Ma 0 -Md 0 -Ms 0 -Mt 0 -Is 0 -Id 6 -It vectorbasedforward -Il 0 -If 0 -Ii 4 -Iv 32 
r -t 18.071909682 -Hs 0 -Hd -2 -Ni 0 -Nx 415.00 -Ny 0.00 -Nz 0.00 -Ne 999.851923 -Nl RTR -Nw --- -Ma 0 -Md 0 -Ms 0 -Mt 0 -Is 0 -Id 0 -It vectorbasedforward -Il 0 -If 0 -Ii 5 -Iv 32 
r -t 18.107370168 -Hs 2 -Hd 2 -Ni 2 -Nx 380.00 -Ny -40.00 -Nz 0.00 -Ne 999.842768 -Nl RTR -Nw --- -Ma 0 -Md 0 -Ms 0 -Mt 0 -Is 0 -Id 0 -It UW-Aloha-ACK -Il 53 -If 0 -Ii 0 -Iv 0 
N -t 19.000000 -n 0 -e 999.844499
N -t 19.000000 -n 1 -e 999.847941
N -t 19.000000 -n 2 -e 999.835627
N -t 19.000000 -n 3 -e 999.832324
N -t 19.000000 -n 4 -e 999.844638
N -t 19.000000 -n 5 -e 999.831256
N -t 19.000000 -n 6 -e 999.832888
N -t 20.000000 -n 0 -e 999.836499
N -t 20.000000 -n 1 -e 999.839941
N -t 20.000000 -n 2 -e 999.827627
N -t 20.000000 -n 3 -e 999.824324
N -t 20.000000 -n 4 -e 999.836638
N -t 20.000000 -n 5 -e 999.823256
N -t 20.000000 -n 6 -e 999.824888
N -t 21.000000 -n 0 -e 999.828499
N -t 21.000000 -n 1 -e 999.831941
N -t 21.000000 -n 2 -e 999.819627
N -t 21.000000 -n 3 -e 999.816324
N -t 21.000000 -n 4 -e 999.828638
N -t 21.000000 -n 5 -e 999.815256
N -t 21.000000 -n 6 -e 999.816888
r -t 21.119129753 -Hs 3 -Hd 3 -Ni 3 -Nx 290.00 -Ny -43.00 -Nz 0.00 -Ne 999.814224 -Nl RTR -Nw --- -Ma 0 -Md 5000000 -Ms 8 -Mt 0 -Is 6 -Id 0 -It vectorbasedforward -Il 500 -If 0 -Ii 3 -Iv 0 
r -t 21.179705757 -Hs 5 -Hd 5 -Ni 5 -Nx 210.00 -Ny 0.00 -Nz 0.00 -Ne 999.810861 -Nl RTR -Nw --- -Ma 0 -Md 0 -Ms 0 -Mt 0 -Is 0 -Id 0 -It UW-Aloha-ACK -Il 53 -If 0 -Ii 0 -Iv 0 
r -t 21.330000000 -Hs 6 -Hd -2 -Ni 6 -Nx 130.00 -Ny 0.00 -Nz 0.00 -Ne 999.814899 -Nl RTR -Nw --- -Ma 0 -Md 0 -Ms 0 -Mt 0 -Is 6 -Id 0 -It vectorbasedforward -Il 500 -If 0 -Ii 4 -Iv 0 
r -t 21.384858000 -Hs 5 -Hd 5 -Ni 5 -Nx 210.00 -Ny 0.00 -Nz 0.00 -Ne 999.808073 -Nl RTR -Nw --- -Ma 0 -Md 6000000 -Ms 8 -Mt 0 -Is 6 -Id 0 -It vectorbasedforward -Il 500 -If 0 -Ii 4 -Iv 0 
r -t 21.438218000 -Hs 6 -Hd 6 -Ni 6 -Nx 130.00 -Ny 0.00 -Nz 0.00 -Ne 999.809331 -Nl RTR -Nw --- -Ma 0 -Md 0 -Ms 0 -Mt 0 -Is 0 -Id 0 -It UW-Aloha-ACK -Il 53 -If 0 -Ii 0 -Iv 0 
N -t 22.000000 -n 0 -e 999.820499
N -t 22.000000 -n 1 -e 999.823941
N -t 22.000000 -n 2 -e 999.811607
N -t 22.000000 -n 3 -e 999.807157
N -t 22.000000 -n 4 -e 999.819524
N -t 22.000000 -n 5 -e 999.803151
N -t 22.000000 -n 6 -e 999.804837
r -t 22.712134489 -Hs 2 -Hd 2 -Ni 2 -Nx 380.00 -Ny -40.00 -Nz 0.00 -Ne 999.804763 -Nl RTR -Nw --- -Ma 0 -Md 3000000 -Ms 8 -Mt 0 -Is 6 -Id 0 -It vectorbasedforward -Il 500 -If 0 -Ii 3 -Iv 0 
r -t 22.772194480 -Hs 3 -Hd 3 -Ni 3 -Nx 290.00 -Ny -43.00 -Nz 0.00 -Ne 999.798023 -Nl RTR -Nw --- -Ma 0 -Md 0 -Ms 0 -Mt 0 -Is 0 -Id 0 -It UW-Aloha-ACK -Il 53 -If 0 -Ii 0 -Iv 0 
N -t 23.000000 -n 0 -e 999.812479
N -t 23.000000 -n 1 -e 999.815941
N -t 23.000000 -n 2 -e 999.802460
N -t 23.000000 -n 3 -e 999.796200
N -t 23.000000 -n 4 -e 999.811524
N -t 23.000000 -n 5 -e 999.794057
N -t 23.000000 -n 6 -e 999.796837
r -t 23.488017574 -Hs 0 -Hd 0 -Ni 0 -Nx 415.00 -Ny 0.00 -Nz 0.00 -Ne 999.807427 -Nl RTR -Nw --- -Ma 0 -Md 2000000 -Ms 8 -Mt 0 -Is 6 -Id 0 -It vectorbasedforward -Il 500 -If 0 -Ii 3 -Iv 0 
r -t 23.488017574 -Hs 0 -Hd -2 -Ni 0 -Nx 415.00 -Ny 0.00 -Nz 0.00 -Ne 999.807427 -Nl RTR -Nw --- -Ma 0 -Md 0 -Ms 0 -Mt 0 -Is 0 -Id 6 -It vectorbasedforward -Il 0 -If 0 -Ii 6 -Iv 32 
r -t 23.488017574 -Hs 0 -Hd -2 -Ni 0 -Nx 415.00 -Ny 0.00 -Nz 0.00 -Ne 999.807427 -Nl RTR -Nw --- -Ma 0 -Md 0 -Ms 0 -Mt 0 -Is 0 -Id 0 -It vectorbasedforward -Il 0 -If 0 -Ii 7 -Iv 32 
r -t 23.523478060 -Hs 2 -Hd 2 -Ni 2 -Nx 380.00 -Ny -40.00 -Nz 0.00 -Ne 999.795315 -Nl RTR -Nw --- -Ma 0 -Md 0 -Ms 0 -Mt 0 -Is 0 -Id 0 -It UW-Aloha-ACK -Il 53 -If 0 -Ii 0 -Iv 0 
N -t 24.000000 -n 0 -e 999.803332
N -t 24.000000 -n 1 -e 999.807921
N -t 24.000000 -n 2 -e 999.791502
N -t 24.000000 -n 3 -e 999.787106
N -t 24.000000 -n 4 -e 999.803524
N -t 24.000000 -n 5 -e 999.786057
N -t 24.000000 -n 6 -e 999.788837
r -t 24.245556716 -Hs 3 -Hd 3 -Ni 3 -Nx 290.00 -Ny -43.00 -Nz 0.00 -Ne 999.783994 -Nl RTR -Nw --- -Ma 0 -Md 5000000 -Ms 8 -Mt 0 -Is 6 -Id 0 -It vectorbasedforward -Il 500 -If 0 -Ii 4 -Iv 0 
r -t 24.306132720 -Hs 5 -Hd 5 -Ni 5 -Nx 210.00 -Ny 0.00 -Nz 0.00 -Ne 999.780651 -Nl RTR -Nw --- -Ma 0 -Md 0 -Ms 0 -Mt 0 -Is 0 -Id 0 -It UW-Aloha-ACK -Il 53 -If 0 -Ii 0 -Iv 0 
N -t 25.000000 -n 0 -e 999.795332
N -t 25.000000 -n 1 -e 999.799921
N -t 25.000000 -n 2 -e 999.783482
N -t 25.000000 -n 3 -e 999.777958
N -t 25.000000 -n 4 -e 999.794430
N -t 25.000000 -n 5 -e 999.775100
N -t 25.000000 -n 6 -e 999.779742
r -t 25.113074759 -Hs 2 -Hd 2 -Ni 2 -Nx 380.00 -Ny -40.00 -Nz 0.00 -Ne 999.781431 -Nl RTR -Nw --- -Ma 0 -Md 3000000 -Ms 8 -Mt 0 -Is 6 -Id 0 -It vectorbasedforward -Il 500 -If 0 -Ii 4 -Iv 0 
r -t 25.173134750 -Hs 3 -Hd 3 -Ni 3 -Nx 290.00 -Ny -43.00 -Nz 0.00 -Ne 999.773616 -Nl RTR -Nw --- -Ma 0 -Md 0 -Ms 0 -Mt 0 -Is 0 -Id 0 -It UW-Aloha-ACK -Il 53 -If 0 -Ii 0 -Iv 0 
N -t 26.000000 -n 0 -e 999.787312
N -t 26.000000 -n 1 -e 999.791921
N -t 26.000000 -n 2 -e 999.774335
N -t 26.000000 -n 3 -e 999.767001
N -t 26.000000 -n 4 -e 999.786430
N -t 26.000000 -n 5 -e 999.766006
N -t 26.000000 -n 6 -e 999.771742
r -t 26.330000000 -Hs 6 -Hd -2 -Ni 6 -Nx 130.00 -Ny 0.00 -Nz 0.00 -Ne 999.771742 -Nl RTR -Nw --- -Ma 0 -Md 0 -Ms 0 -Mt 0 -Is 6 -Id 0 -It vectorbasedforward -Il 500 -If 0 -Ii 5 -Iv 0 
r -t 26.527057021 -Hs 0 -Hd 0 -Ni 0 -Nx 415.00 -Ny 0.00 -Nz 0.00 -Ne 999.781948 -Nl RTR -Nw --- -Ma 0 -Md 2000000 -Ms 8 -Mt 0 -Is 6 -Id 0 -It vectorbasedforward -Il 500 -If 0 -Ii 4 -Iv 0 
r -t 26.527057021 -Hs 0 -Hd -2 -Ni 0 -Nx 415.00 -Ny 0.00 -Nz 0.00 -Ne 999.781948 -Nl RTR -Nw --- -Ma 0 -Md 0 -Ms 0 -Mt 0 -Is 0 -Id 6 -It vectorbasedforward -Il 0 -If 0 -Ii 8 -Iv 32 
r -t 26.527057021 -Hs 0 -Hd -2 -Ni 0 -Nx 415.00 -Ny 0.00 -Nz 0.00 -Ne 999.781948 -Nl RTR -Nw --- -Ma 0 -Md 0 -Ms 0 -Mt 0 -Is 0 -Id 0 -It vectorbasedforward -Il 0 -If 0 -Ii 9 -Iv 32 
r -t 26.562517507 -Hs 2 -Hd 2 -Ni 2 -Nx 380.00 -Ny -40.00 -Nz 0.00 -Ne 999.766878 -Nl RTR -Nw --- -Ma 0 -Md 0 -Ms 0 -Mt 0 -Is 0 -Id 0 -It UW-Aloha-ACK -Il 53 -If 0 -Ii 0 -Iv 0 
N -t 27.000000 -n 0 -e 999.778164
N -t 27.000000 -n 1 -e 999.783901
N -t 27.000000 -n 2 -e 999.763378
N -t 27.000000 -n 3 -e 999.757907
N -t 27.000000 -n 4 -e 999.778430
N -t 27.000000 -n 5 -e 999.758006
N -t 27.000000 -n 6 -e 999.763742
N -t 28.000000 -n 0 -e 999.770164
N -t 28.000000 -n 1 -e 999.775901
N -t 28.000000 -n 2 -e 999.755378
N -t 28.000000 -n 3 -e 999.749907
N -t 28.000000 -n 4 -e 999.770430
N -t 28.000000 -n 5 -e 999.750006
N -t 28.000000 -n 6 -e 999.755742
r -t 28.427662001 -Hs 5 -Hd 5 -Ni 5 -Nx 210.00 -Ny 0.00 -Nz 0.00 -Ne 999.745437 -Nl RTR -Nw --- -Ma 0 -Md 6000000 -Ms 8 -Mt 0 -Is 6 -Id 0 -It vectorbasedforward -Il 500 -If 0 -Ii 5 -Iv 0 
r -t 28.481022001 -Hs 6 -Hd 6 -Ni 6 -Nx 130.00 -Ny 0.00 -Nz 0.00 -Ne 999.748937 -Nl RTR -Nw --- -Ma 0 -Md 0 -Ms 0 -Mt 0 -Is 0 -Id 0 -It UW-Aloha-ACK -Il 53 -If 0 -Ii 0 -Iv 0 
N -t 29.000000 -n 0 -e 999.762164
N -t 29.000000 -n 1 -e 999.767901
N -t 29.000000 -n 2 -e 999.747378
N -t 29.000000 -n 3 -e 999.741887
N -t 29.000000 -n 4 -e 999.762410
N -t 29.000000 -n 5 -e 999.740858
N -t 29.000000 -n 6 -e 999.744785
r -t 29.403580091 -Hs 3 -Hd 3 -Ni 3 -Nx 290.00 -Ny -43.00 -Nz 0.00 -Ne 999.737511 -Nl RTR -Nw --- -Ma 0 -Md 5000000 -Ms 8 -Mt 0 -Is 6 -Id 0 -It vectorbasedforward -Il 500 -If 0 -Ii 5 -Iv 0 
r -t 29.464156094 -Hs 5 -Hd 5 -Ni 5 -Nx 210.00 -Ny 0.00 -Nz 0.00 -Ne 999.734188 -Nl RTR -Nw --- -Ma 0 -Md 0 -Ms 0 -Mt 0 -Is 0 -Id 0 -It UW-Aloha-ACK -Il 53 -If 0 -Ii 0 -Iv 0 
N -t 30.000000 -n 0 -e 999.754164
N -t 30.000000 -n 1 -e 999.759901
N -t 30.000000 -n 2 -e 999.739358
N -t 30.000000 -n 3 -e 999.732740
N -t 30.000000 -n 4 -e 999.753316
N -t 30.000000 -n 5 -e 999.729901
N -t 30.000000 -n 6 -e 999.735691
r -t 30.271098134 -Hs 2 -Hd 2 -Ni 2 -Nx 380.00 -Ny -40.00 -Nz 0.00 -Ne 999.736042 -Nl RTR -Nw --- -Ma 0 -Md 3000000 -Ms 8 -Mt 0 -Is 6 -Id 0 -It vectorbasedforward -Il 500 -If 0 -Ii 5 -Iv 0 
r -t 30.331158125 -Hs 3 -Hd 3 -Ni 3 -Nx 290.00 -Ny -43.00 -Nz 0.00 -Ne 999.727133 -Nl RTR -Nw --- -Ma 0 -Md 0 -Ms 0 -Mt 0 -Is 0 -Id 0 -It UW-Aloha-ACK -Il 53 -If 0 -Ii 0 -Iv 0 
N -t 31.000000 -n 0 -e 999.746145
N -t 31.000000 -n 1 -e 999.751901
N -t 31.000000 -n 2 -e 999.730211
N -t 31.000000 -n 3 -e 999.721782
N -t 31.000000 -n 4 -e 999.745316
N -t 31.000000 -n 5 -e 999.720807
N -t 31.000000 -n 6 -e 999.727691
r -t 31.330000000 -Hs 6 -Hd -2 -Ni 6 -Nx 130.00 -Ny 0.00 -Nz 0.00 -Ne 999.727691 -Nl RTR -Nw --- -Ma 0 -Md 0 -Ms 0 -Mt 0 -Is 6 -Id 0 -It vectorbasedforward -Il 500 -If 0 -Ii 6 -Iv 0 
r -t 31.852048026 -Hs 0 -Hd 0 -Ni 0 -Nx 415.00 -Ny 0.00 -Nz 0.00 -Ne 999.738181 -Nl RTR -Nw --- -Ma 0 -Md 2000000 -Ms 8 -Mt 0 -Is 6 -Id 0 -It vectorbasedforward -Il 500 -If 0 -Ii 5 -Iv 0 
r -t 31.852048026 -Hs 0 -Hd -2 -Ni 0 -Nx 415.00 -Ny 0.00 -Nz 0.00 -Ne 999.738181 -Nl RTR -Nw --- -Ma 0 -Md 0 -Ms 0 -Mt 0 -Is 0 -Id 6 -It vectorbasedforward -Il 0 -If 0 -Ii 10 -Iv 32 
r -t 31.852048026 -Hs 0 -Hd -2 -Ni 0 -Nx 415.00 -Ny 0.00 -Nz 0.00 -Ne 999.738181 -Nl RTR -Nw --- -Ma 0 -Md 0 -Ms 0 -Mt 0 -Is 0 -Id 0 -It vectorbasedforward -Il 0 -If 0 -Ii 11 -Iv 32 
r -t 31.887508512 -Hs 2 -Hd 2 -Ni 2 -Nx 380.00 -Ny -40.00 -Nz 0.00 -Ne 999.720154 -Nl RTR -Nw --- -Ma 0 -Md 0 -Ms 0 -Mt 0 -Is 0 -Id 0 -It UW-Aloha-ACK -Il 53 -If 0 -Ii 0 -Iv 0 
N -t 32.000000 -n 0 -e 999.736997
N -t 32.000000 -n 1 -e 999.743881
N -t 32.000000 -n 2 -e 999.719253
N -t 32.000000 -n 3 -e 999.712688
N -t 32.000000 -n 4 -e 999.737316
N -t 32.000000 -n 5 -e 999.712807
N -t 32.000000 -n 6 -e 999.719691
N -t 33.000000 -n 0 -e 999.728997
N -t 33.000000 -n 1 -e 999.735881
N -t 33.000000 -n 2 -e 999.711253
N -t 33.000000 -n 3 -e 999.704688
N -t 33.000000 -n 4 -e 999.729316
N -t 33.000000 -n 5 -e 999.704807
N -t 33.000000 -n 6 -e 999.711691
N -t 34.000000 -n 0 -e 999.720997
N -t 34.000000 -n 1 -e 999.727881
N -t 34.000000 -n 2 -e 999.703253
N -t 34.000000 -n 3 -e 999.696688
N -t 34.000000 -n 4 -e 999.721316
N -t 34.000000 -n 5 -e 999.696807
N -t 34.000000 -n 6 -e 999.703691
r -t 34.097589466 -Hs 5 -Hd 5 -Ni 5 -Nx 210.00 -Ny 0.00 -Nz 0.00 -Ne 999.694879 -Nl RTR -Nw --- -Ma 0 -Md 6000000 -Ms 8 -Mt 0 -Is 6 -Id 0 -It vectorbasedforward -Il 500 -If 0 -Ii 6 -Iv 0 
r -t 34.150949466 -Hs 6 -Hd 6 -Ni 6 -Nx 130.00 -Ny 0.00 -Nz 0.00 -Ne 999.699526 -Nl RTR -Nw --- -Ma 0 -Md 0 -Ms 0 -Mt 0 -Is 0 -Id 0 -It UW-Aloha-ACK -Il 53 -If 0 -Ii 0 -Iv 0 
r -t 34.633543732 -Hs 3 -Hd 3 -Ni 3 -Nx 290.00 -Ny -43.00 -Nz 0.00 -Ne 999.690453 -Nl RTR -Nw --- -Ma 0 -Md 5000000 -Ms 8 -Mt 0 -Is 6 -Id 0 -It vectorbasedforward -Il 500 -If 0 -Ii 6 -Iv 0 
r -t 34.694119735 -Hs 5 -Hd 5 -Ni 5 -Nx 210.00 -Ny 0.00 -Nz 0.00 -Ne 999.687150 -Nl RTR -Nw --- -Ma 0 -Md 0 -Ms 0 -Mt 0 -Is 0 -Id 0 -It UW-Aloha-ACK -Il 53 -If 0 -Ii 0 -Iv 0 
N -t 35.000000 -n 0 -e 999.712997
N -t 35.000000 -n 1 -e 999.719881
N -t 35.000000 -n 2 -e 999.695234
N -t 35.000000 -n 3 -e 999.687521
N -t 35.000000 -n 4 -e 999.712202
N -t 35.000000 -n 5 -e 999.684702
N -t 35.000000 -n 6 -e 999.691639
r -t 35.501061775 -Hs 2 -Hd 2 -Ni 2 -Nx 380.00 -Ny -40.00 -Nz 0.00 -Ne 999.690078 -Nl RTR -Nw --- -Ma 0 -Md 3000000 -Ms 8 -Mt 0 -Is 6 -Id 0 -It vectorbasedforward -Il 500 -If 0 -Ii 6 -Iv 0 
r -t 35.561121766 -Hs 3 -Hd 3 -Ni 3 -Nx 290.00 -Ny -43.00 -Nz 0.00 -Ne 999.680075 -Nl RTR -Nw --- -Ma 0 -Md 0 -Ms 0 -Mt 0 -Is 0 -Id 0 -It UW-Aloha-ACK -Il 53 -If 0 -Ii 0 -Iv 0 
N -t 36.000000 -n 0 -e 999.704978
N -t 36.000000 -n 1 -e 999.711881
N -t 36.000000 -n 2 -e 999.686086
N -t 36.000000 -n 3 -e 999.676564
N -t 36.000000 -n 4 -e 999.704202
N -t 36.000000 -n 5 -e 999.675608
N -t 36.000000 -n 6 -e 999.683639
r -t 36.330000000 -Hs 6 -Hd -2 -Ni 6 -Nx 130.00 -Ny 0.00 -Nz 0.00 -Ne 999.683639 -Nl RTR -Nw --- -Ma 0 -Md 0 -Ms 0 -Mt 0 -Is 6 -Id 0 -It vectorbasedforward -Il 500 -If 0 -Ii 7 -Iv 0 
r -t 36.950420390 -Hs 5 -Hd 5 -Ni 5 -Nx 210.00 -Ny 0.00 -Nz 0.00 -Ne 999.666857 -Nl RTR -Nw --- -Ma 0 -Md 6000000 -Ms 8 -Mt 0 -Is 6 -Id 0 -It vectorbasedforward -Il 500 -If 0 -Ii 7 -Iv 0 
r -t 36.972701471 -Hs 0 -Hd 0 -Ni 0 -Nx 415.00 -Ny 0.00 -Nz 0.00 -Ne 999.696049 -Nl RTR -Nw --- -Ma 0 -Md 2000000 -Ms 8 -Mt 0 -Is 6 -Id 0 -It vectorbasedforward -Il 500 -If 0 -Ii 6 -Iv 0 
r -t 36.972701471 -Hs 0 -Hd -2 -Ni 0 -Nx 415.00 -Ny 0.00 -Nz 0.00 -Ne 999.696049 -Nl RTR -Nw --- -Ma 0 -Md 0 -Ms 0 -Mt 0 -Is 0 -Id 6 -It vectorbasedforward -Il 0 -If 0 -Ii 12 -Iv 32 
r -t 36.972701471 -Hs 0 -Hd -2 -Ni 0 -Nx 415.00 -Ny 0.00 -Nz 0.00 -Ne 999.696049 -Nl RTR -Nw --- -Ma 0 -Md 0 -Ms 0 -Mt 0 -Is 0 -Id 0 -It vectorbasedforward -Il 0 -If 0 -Ii 13 -Iv 32 
N -t 37.000000 -n 0 -e 999.695830
N -t 37.000000 -n 1 -e 999.703881
N -t 37.000000 -n 2 -e 999.675149
N -t 37.000000 -n 3 -e 999.667470
N -t 37.000000 -n 4 -e 999.696182
N -t 37.000000 -n 5 -e 999.666461
N -t 37.000000 -n 6 -e 999.672702
r -t 37.003780390 -Hs 6 -Hd 6 -Ni 6 -Nx 130.00 -Ny 0.00 -Nz 0.00 -Ne 999.672652 -Nl RTR -Nw --- -Ma 0 -Md 0 -Ms 0 -Mt 0 -Is 0 -Id 0 -It UW-Aloha-ACK -Il 53 -If 0 -Ii 0 -Iv 0 
r -t 37.008161957 -Hs 2 -Hd 2 -Ni 2 -Nx 380.00 -Ny -40.00 -Nz 0.00 -Ne 999.675064 -Nl RTR -Nw --- -Ma 0 -Md 0 -Ms 0 -Mt 0 -Is 0 -Id 0 -It UW-Aloha-ACK -Il 53 -If 0 -Ii 0 -Iv 0 
r -t 37.486374656 -Hs 3 -Hd 3 -Ni 3 -Nx 290.00 -Ny -43.00 -Nz 0.00 -Ne 999.662411 -Nl RTR -Nw --- -Ma 0 -Md 5000000 -Ms 8 -Mt 0 -Is 6 -Id 0 -It vectorbasedforward -Il 500 -If 0 -Ii 7 -Iv 0 
r -t 37.546950660 -Hs 5 -Hd 5 -Ni 5 -Nx 210.00 -Ny 0.00 -Nz 0.00 -Ne 999.659128 -Nl RTR -Nw --- -Ma 0 -Md 0 -Ms 0 -Mt 0 -Is 0 -Id 0 -It UW-Aloha-ACK -Il 53 -If 0 -Ii 0 -Iv 0 
N -t 38.000000 -n 0 -e 999.687830
N -t 38.000000 -n 1 -e 999.695861
N -t 38.000000 -n 2 -e 999.667109
N -t 38.000000 -n 3 -e 999.658302
N -t 38.000000 -n 4 -e 999.687088
N -t 38.000000 -n 5 -e 999.655503
N -t 38.000000 -n 6 -e 999.663588
r -t 38.353892699 -Hs 2 -Hd 2 -Ni 2 -Nx 380.00 -Ny -40.00 -Nz 0.00 -Ne 999.663131 -Nl RTR -Nw --- -Ma 0 -Md 3000000 -Ms 8 -Mt 0 -Is 6 -Id 0 -It vectorbasedforward -Il 500 -If 0 -Ii 7 -Iv 0 
r -t 38.413952690 -Hs 3 -Hd 3 -Ni 3 -Nx 290.00 -Ny -43.00 -Nz 0.00 -Ne 999.652034 -Nl RTR -Nw --- -Ma 0 -Md 0 -Ms 0 -Mt 0 -Is 0 -Id 0 -It UW-Aloha-ACK -Il 53 -If 0 -Ii 0 -Iv 0 
N -t 39.000000 -n 0 -e 999.679810
N -t 39.000000 -n 1 -e 999.687861
N -t 39.000000 -n 2 -e 999.657962
N -t 39.000000 -n 3 -e 999.647345
N -t 39.000000 -n 4 -e 999.679088
N -t 39.000000 -n 5 -e 999.646409
N -t 39.000000 -n 6 -e 999.655588
r -t 39.129775785 -Hs 0 -Hd 0 -Ni 0 -Nx 415.00 -Ny 0.00 -Nz 0.00 -Ne 999.677625 -Nl RTR -Nw --- -Ma 0 -Md 2000000 -Ms 8 -Mt 0 -Is 6 -Id 0 -It vectorbasedforward -Il 500 -If 0 -Ii 7 -Iv 0 
r -t 39.129775785 -Hs 0 -Hd -2 -Ni 0 -Nx 415.00 -Ny 0.00 -Nz 0.00 -Ne 999.677625 -Nl RTR -Nw --- -Ma 0 -Md 0 -Ms 0 -Mt 0 -Is 0 -Id 6 -It vectorbasedforward -Il 0 -If 0 -Ii 14 -Iv 32 
r -t 39.129775785 -Hs 0 -Hd -2 -Ni 0 -Nx 415.00 -Ny 0.00 -Nz 0.00 -Ne 999.677625 -Nl RTR -Nw --- -Ma 0 -Md 0 -Ms 0 -Mt 0 -Is 0 -Id 0 -It vectorbasedforward -Il 0 -If 0 -Ii 15 -Iv 32 
r -t 39.165236271 -Hs 2 -Hd 2 -Ni 2 -Nx 380.00 -Ny -40.00 -Nz 0.00 -Ne 999.653683 -Nl RTR -Nw --- -Ma 0 -Md 0 -Ms 0 -Mt 0 -Is 0 -Id 0 -It UW-Aloha-ACK -Il 53 -If 0 -Ii 0 -Iv 0 
N -t 40.000000 -n 0 -e 999.670663
N -t 40.000000 -n 1 -e 999.679842
N -t 40.000000 -n 2 -e 999.647005
N -t 40.000000 -n 3 -e 999.638251
N -t 40.000000 -n 4 -e 999.671088
N -t 40.000000 -n 5 -e 999.638409
N -t 40.000000 -n 6 -e 999.647588
N -t 41.000000 -n 0 -e 999.662663
N -t 41.000000 -n 1 -e 999.671842
N -t 41.000000 -n 2 -e 999.639005
N -t 41.000000 -n 3 -e 999.630251
N -t 41.000000 -n 4 -e 999.663088
N -t 41.000000 -n 5 -e 999.630409
N -t 41.000000 -n 6 -e 999.639588
r -t 41.330000000 -Hs 6 -Hd -2 -Ni 6 -Nx 130.00 -Ny 0.00 -Nz 0.00 -Ne 999.639588 -Nl RTR -Nw --- -Ma 0 -Md 0 -Ms 0 -Mt 0 -Is 6 -Id 0 -It vectorbasedforward -Il 500 -If 0 -Ii 8 -Iv 0 
N -t 42.000000 -n 0 -e 999.654663
N -t 42.000000 -n 1 -e 999.663842
N -t 42.000000 -n 2 -e 999.631005
N -t 42.000000 -n 3 -e 999.622251
N -t 42.000000 -n 4 -e 999.655088
N -t 42.000000 -n 5 -e 999.622409
N -t 42.000000 -n 6 -e 999.628650
r -t 42.026261770 -Hs 5 -Hd 5 -Ni 5 -Nx 210.00 -Ny 0.00 -Nz 0.00 -Ne 999.621052 -Nl RTR -Nw --- -Ma 0 -Md 6000000 -Ms 8 -Mt 0 -Is 6 -Id 0 -It vectorbasedforward -Il 500 -If 0 -Ii 8 -Iv 0 
r -t 42.079621770 -Hs 6 -Hd 6 -Ni 6 -Nx 130.00 -Ny 0.00 -Nz 0.00 -Ne 999.627994 -Nl RTR -Nw --- -Ma 0 -Md 0 -Ms 0 -Mt 0 -Is 0 -Id 0 -It UW-Aloha-ACK -Il 53 -If 0 -Ii 0 -Iv 0 
N -t 43.000000 -n 0 -e 999.646663
N -t 43.000000 -n 1 -e 999.655842
N -t 43.000000 -n 2 -e 999.623005
N -t 43.000000 -n 3 -e 999.614231
N -t 43.000000 -n 4 -e 999.647068
N -t 43.000000 -n 5 -e 999.613262
N -t 43.000000 -n 6 -e 999.620630
N -t 44.000000 -n 0 -e 999.638663
N -t 44.000000 -n 1 -e 999.647842
N -t 44.000000 -n 2 -e 999.615005
N -t 44.000000 -n 3 -e 999.606231
N -t 44.000000 -n 4 -e 999.639068
N -t 44.000000 -n 5 -e 999.605262
N -t 44.000000 -n 6 -e 999.612630
r -t 44.159995579 -Hs 3 -Hd 3 -Ni 3 -Nx 290.00 -Ny -43.00 -Nz 0.00 -Ne 999.603804 -Nl RTR -Nw --- -Ma 0 -Md 5000000 -Ms 8 -Mt 0 -Is 6 -Id 0 -It vectorbasedforward -Il 500 -If 0 -Ii 8 -Iv 0 
r -t 44.220571583 -Hs 5 -Hd 5 -Ni 5 -Nx 210.00 -Ny 0.00 -Nz 0.00 -Ne 999.600540 -Nl RTR -Nw --- -Ma 0 -Md 0 -Ms 0 -Mt 0 -Is 0 -Id 0 -It UW-Aloha-ACK -Il 53 -If 0 -Ii 0 -Iv 0 
N -t 45.000000 -n 0 -e 999.630663
N -t 45.000000 -n 1 -e 999.639842
N -t 45.000000 -n 2 -e 999.606985
N -t 45.000000 -n 3 -e 999.597084
N -t 45.000000 -n 4 -e 999.629974
N -t 45.000000 -n 5 -e 999.594305
N -t 45.000000 -n 6 -e 999.603536
r -t 45.770797234 -Hs 2 -Hd 2 -Ni 2 -Nx 380.00 -Ny -40.00 -Nz 0.00 -Ne 999.599671 -Nl RTR -Nw --- -Ma 0 -Md 3000000 -Ms 8 -Mt 0 -Is 6 -Id 0 -It vectorbasedforward -Il 500 -If 0 -Ii 8 -Iv 0 
r -t 45.830857225 -Hs 3 -Hd 3 -Ni 3 -Nx 290.00 -Ny -43.00 -Nz 0.00 -Ne 999.587480 -Nl RTR -Nw --- -Ma 0 -Md 0 -Ms 0 -Mt 0 -Is 0 -Id 0 -It UW-Aloha-ACK -Il 53 -If 0 -Ii 0 -Iv 0 
N -t 46.000000 -n 0 -e 999.622643
N -t 46.000000 -n 1 -e 999.631842
N -t 46.000000 -n 2 -e 999.597837
N -t 46.000000 -n 3 -e 999.586126
N -t 46.000000 -n 4 -e 999.621974
N -t 46.000000 -n 5 -e 999.585210
N -t 46.000000 -n 6 -e 999.595536
r -t 46.330000000 -Hs 6 -Hd -2 -Ni 6 -Nx 130.00 -Ny 0.00 -Nz 0.00 -Ne 999.595536 -Nl RTR -Nw --- -Ma 0 -Md 0 -Ms 0 -Mt 0 -Is 6 -Id 0 -It vectorbasedforward -Il 500 -If 0 -Ii 9 -Iv 0 
N -t 47.000000 -n 0 -e 999.614643
N -t 47.000000 -n 1 -e 999.623842
N -t 47.000000 -n 2 -e 999.589837
N -t 47.000000 -n 3 -e 999.578126
N -t 47.000000 -n 4 -e 999.613974
N -t 47.000000 -n 5 -e 999.577210
N -t 47.000000 -n 6 -e 999.587536
r -t 47.973352380 -Hs 0 -Hd 0 -Ni 0 -Nx 415.00 -Ny 0.00 -Nz 0.00 -Ne 999.605709 -Nl RTR -Nw --- -Ma 0 -Md 2000000 -Ms 8 -Mt 0 -Is 6 -Id 0 -It vectorbasedforward -Il 500 -If 0 -Ii 8 -Iv 0 
r -t 47.973352380 -Hs 0 -Hd -2 -Ni 0 -Nx 415.00 -Ny 0.00 -Nz 0.00 -Ne 999.605709 -Nl RTR -Nw --- -Ma 0 -Md 0 -Ms 0 -Mt 0 -Is 0 -Id 6 -It vectorbasedforward -Il 0 -If 0 -Ii 16 -Iv 32 
r -t 47.973352380 -Hs 0 -Hd -2 -Ni 0 -Nx 415.00 -Ny 0.00 -Nz 0.00 -Ne 999.605709 -Nl RTR -Nw --- -Ma 0 -Md 0 -Ms 0 -Mt 0 -Is 0 -Id 0 -It vectorbasedforward -Il 0 -If 0 -Ii 17 -Iv 32 
N -t 48.000000 -n 0 -e 999.605496
N -t 48.000000 -n 1 -e 999.615842
N -t 48.000000 -n 2 -e 999.578900
N -t 48.000000 -n 3 -e 999.569032
N -t 48.000000 -n 4 -e 999.605974