N -t 1.000000 -n 0 -e 999.992000
N -t 1.000000 -n 1 -e 999.992000
N -t 1.000000 -n 2 -e 999.992000
N -t 1.000000 -n 3 -e 999.992000
N -t 1.000000 -n 4 -e 999.992000
N -t 1.000000 -n 5 -e 999.992000
N -t 1.000000 -n 6 -e 999.992000
s -t 1.330025000 -Hs 6 -Hd 4 -Ni 6 -Nx 140.00 -Ny 0.00 -Nz 0.00 -Ne 999.992000 -Nl MAC -Nw --- -Ma 0 -Md 6000000 -Ms ffff0008 -Mt 0 -Is 6 -Id 0 -It vectorbasedforward -Il 500 -If 0 -Ii 0 -Iv 0 
r -t 1.378025000 -Hs 5 -Hd 4 -Ni 5 -Nx 210.00 -Ny 0.00 -Nz 0.00 -Ne 999.987986 -Nl MAC -Nw --- -Ma 0 -Md 6000000 -Ms ffff0008 -Mt 0 -Is 6 -Id 0 -It vectorbasedforward -Il 500 -If 0 -Ii 0 -Iv 0 
s -t 1.965797558 -Hs 5 -Hd 0 -Ni 5 -Nx 210.00 -Ny 0.00 -Nz 0.00 -Ne 999.987986 -Nl MAC -Nw --- -Ma 0 -Md 5000000 -Ms ffff0008 -Mt 0 -Is 6 -Id 0 -It vectorbasedforward -Il 500 -If 0 -Ii 0 -Iv 0 
N -t 2.000000 -n 0 -e 999.984000
N -t 2.000000 -n 1 -e 999.984000
N -t 2.000000 -n 2 -e 999.984000
N -t 2.000000 -n 3 -e 999.984000
N -t 2.000000 -n 4 -e 999.984000
N -t 2.000000 -n 5 -e 999.980355
N -t 2.000000 -n 6 -e 999.981344
d -t 2.005433777 -Hs 4 -Hd 0 -Ni 4 -Nx 240.00 -Ny 49.00 -Nz 0.00 -Ne 999.982967 -Nl MAC -Nw Error/Collision -Ma 0 -Md 5000000 -Ms ffff0008 -Mt 0 -Is 6 -Id 0 -It vectorbasedforward -Il 500 -If 0 -Ii 0 -Iv 0 
r -t 2.013797558 -Hs 6 -Hd 0 -Ni 6 -Nx 140.00 -Ny 0.00 -Nz 0.00 -Ne 999.980244 -Nl MAC -Nw --- -Ma 0 -Md 5000000 -Ms ffff0008 -Mt 0 -Is 6 -Id 0 -It vectorbasedforward -Il 500 -If 0 -Ii 0 -Iv 0 
d -t 2.013822558 -Hs 6 -Hd 0 -Ni 6 -Nx 140.00 -Ny 0.00 -Nz 0.00 -Ne 999.980244 -Nl RTR -Nw Error/Collision -Ma 0 -Md 5000000 -Ms ffff0008 -Mt 0 -Is 6 -Id 0 -It vectorbasedforward -Il 500 -If 0 -Ii 0 -Iv 0 
r -t 2.027680228 -Hs 3 -Hd 0 -Ni 3 -Nx 290.00 -Ny -43.00 -Nz 0.00 -Ne 999.982789 -Nl MAC -Nw --- -Ma 0 -Md 5000000 -Ms ffff0008 -Mt 0 -Is 6 -Id 0 -It vectorbasedforward -Il 500 -If 0 -Ii 0 -Iv 0 
s -t 2.833690280 -Hs 3 -Hd 0 -Ni 3 -Nx 290.00 -Ny -43.00 -Nz 0.00 -Ne 999.982789 -Nl MAC -Nw --- -Ma 0 -Md 3000000 -Ms ffff0008 -Mt 0 -Is 6 -Id 0 -It vectorbasedforward -Il 500 -If 0 -Ii 0 -Iv 0 
r -t 2.895056938 -Hs 2 -Hd 0 -Ni 2 -Nx 380.00 -Ny -40.00 -Nz 0.00 -Ne 999.975850 -Nl MAC -Nw --- -Ma 0 -Md 3000000 -Ms ffff0008 -Mt 0 -Is 6 -Id 0 -It vectorbasedforward -Il 500 -If 0 -Ii 0 -Iv 0 
r -t 2.895572951 -Hs 5 -Hd 0 -Ni 5 -Nx 210.00 -Ny 0.00 -Nz 0.00 -Ne 999.972201 -Nl MAC -Nw --- -Ma 0 -Md 3000000 -Ms ffff0008 -Mt 0 -Is 6 -Id 0 -It vectorbasedforward -Il 500 -If 0 -Ii 0 -Iv 0 
d -t 2.895597951 -Hs 5 -Hd 0 -Ni 5 -Nx 210.00 -Ny 0.00 -Nz 0.00 -Ne 999.972201 -Nl RTR -Nw Error/Collision -Ma 0 -Md 3000000 -Ms ffff0008 -Mt 0 -Is 6 -Id 0 -It vectorbasedforward -Il 500 -If 0 -Ii 0 -Iv 0 
N -t 3.000000 -n 0 -e 999.976000
N -t 3.000000 -n 1 -e 999.976000
N -t 3.000000 -n 2 -e 999.975011
N -t 3.000000 -n 3 -e 999.972355
N -t 3.000000 -n 4 -e 999.975011
N -t 3.000000 -n 5 -e 999.971365
N -t 3.000000 -n 6 -e 999.972355
s -t 3.634031537 -Hs 2 -Hd 0 -Ni 2 -Nx 380.00 -Ny -40.00 -Nz 0.00 -Ne 999.975011 -Nl MAC -Nw --- -Ma 0 -Md 2000000 -Ms ffff0008 -Mt 0 -Is 6 -Id 0 -It vectorbasedforward -Il 500 -If 0 -Ii 0 -Iv 0 
r -t 3.670798690 -Hs 0 -Hd 0 -Ni 0 -Nx 415.00 -Ny 0.00 -Nz 0.00 -Ne 999.969644 -Nl MAC -Nw --- -Ma 0 -Md 2000000 -Ms ffff0008 -Mt 0 -Is 6 -Id 0 -It vectorbasedforward -Il 500 -If 0 -Ii 0 -Iv 0 
r -t 3.695398194 -Hs 3 -Hd 0 -Ni 3 -Nx 290.00 -Ny -43.00 -Nz 0.00 -Ne 999.965802 -Nl MAC -Nw --- -Ma 0 -Md 2000000 -Ms ffff0008 -Mt 0 -Is 6 -Id 0 -It vectorbasedforward -Il 500 -If 0 -Ii 0 -Iv 0 
d -t 3.695423194 -Hs 3 -Hd 0 -Ni 3 -Nx 290.00 -Ny -43.00 -Nz 0.00 -Ne 999.965802 -Nl RTR -Nw Error/Collision -Ma 0 -Md 2000000 -Ms ffff0008 -Mt 0 -Is 6 -Id 0 -It vectorbasedforward -Il 500 -If 0 -Ii 0 -Iv 0 
N -t 4.000000 -n 0 -e 999.967011
N -t 4.000000 -n 1 -e 999.968000
N -t 4.000000 -n 2 -e 999.964355
N -t 4.000000 -n 3 -e 999.963365
N -t 4.000000 -n 4 -e 999.967011
N -t 4.000000 -n 5 -e 999.963365
N -t 4.000000 -n 6 -e 999.964355
N -t 5.000000 -n 0 -e 999.959011
N -t 5.000000 -n 1 -e 999.960000
N -t 5.000000 -n 2 -e 999.956355
N -t 5.000000 -n 3 -e 999.955365
N -t 5.000000 -n 4 -e 999.959011
N -t 5.000000 -n 5 -e 999.955365
N -t 5.000000 -n 6 -e 999.956355
N -t 6.000000 -n 0 -e 999.951011
N -t 6.000000 -n 1 -e 999.952000
N -t 6.000000 -n 2 -e 999.948355
N -t 6.000000 -n 3 -e 999.947365
N -t 6.000000 -n 4 -e 999.951011
N -t 6.000000 -n 5 -e 999.947365
N -t 6.000000 -n 6 -e 999.948355
s -t 6.330025000 -Hs 6 -Hd 4 -Ni 6 -Nx 140.00 -Ny 0.00 -Nz 0.00 -Ne 999.948355 -Nl MAC -Nw --- -Ma 0 -Md 6000000 -Ms ffff0008 -Mt 0 -Is 6 -Id 0 -It vectorbasedforward -Il 500 -If 0 -Ii 1 -Iv 0 
r -t 6.378025000 -Hs 5 -Hd 4 -Ni 5 -Nx 210.00 -Ny 0.00 -Nz 0.00 -Ne 999.943352 -Nl MAC -Nw --- -Ma 0 -Md 6000000 -Ms ffff0008 -Mt 0 -Is 6 -Id 0 -It vectorbasedforward -Il 500 -If 0 -Ii 1 -Iv 0 
s -t 6.965797558 -Hs 5 -Hd 0 -Ni 5 -Nx 210.00 -Ny 0.00 -Nz 0.00 -Ne 999.943352 -Nl MAC -Nw --- -Ma 0 -Md 5000000 -Ms ffff0008 -Mt 0 -Is 6 -Id 0 -It vectorbasedforward -Il 500 -If 0 -Ii 1 -Iv 0 
N -t 7.000000 -n 0 -e 999.943011
N -t 7.000000 -n 1 -e 999.944000
N -t 7.000000 -n 2 -e 999.940355
N -t 7.000000 -n 3 -e 999.939365
N -t 7.000000 -n 4 -e 999.943011
N -t 7.000000 -n 5 -e 999.935720
N -t 7.000000 -n 6 -e 999.937699
r -t 7.005433777 -Hs 4 -Hd 0 -Ni 4 -Nx 240.00 -Ny 49.00 -Nz 0.00 -Ne 999.941978 -Nl MAC -Nw --- -Ma 0 -Md 5000000 -Ms ffff0008 -Mt 0 -Is 6 -Id 0 -It vectorbasedforward -Il 500 -If 0 -Ii 1 -Iv 0 
r -t 7.013797558 -Hs 6 -Hd 0 -Ni 6 -Nx 140.00 -Ny 0.00 -Nz 0.00 -Ne 999.936599 -Nl MAC -Nw --- -Ma 0 -Md 5000000 -Ms ffff0008 -Mt 0 -Is 6 -Id 0 -It vectorbasedforward -Il 500 -If 0 -Ii 1 -Iv 0 
d -t 7.013822558 -Hs 6 -Hd 0 -Ni 6 -Nx 140.00 -Ny 0.00 -Nz 0.00 -Ne 999.936599 -Nl RTR -Nw Error/Collision -Ma 0 -Md 5000000 -Ms ffff0008 -Mt 0 -Is 6 -Id 0 -It vectorbasedforward -Il 500 -If 0 -Ii 1 -Iv 0 
r -t 7.027680228 -Hs 3 -Hd 0 -Ni 3 -Nx 290.00 -Ny -43.00 -Nz 0.00 -Ne 999.938155 -Nl MAC -Nw --- -Ma 0 -Md 5000000 -Ms ffff0008 -Mt 0 -Is 6 -Id 0 -It vectorbasedforward -Il 500 -If 0 -Ii 1 -Iv 0 
s -t 7.833690280 -Hs 3 -Hd 0 -Ni 3 -Nx 290.00 -Ny -43.00 -Nz 0.00 -Ne 999.938155 -Nl MAC -Nw --- -Ma 0 -Md 3000000 -Ms ffff0008 -Mt 0 -Is 6 -Id 0 -It vectorbasedforward -Il 500 -If 0 -Ii 1 -Iv 0 
r -t 7.895056938 -Hs 2 -Hd 0 -Ni 2 -Nx 380.00 -Ny -40.00 -Nz 0.00 -Ne 999.932205 -Nl MAC -Nw --- -Ma 0 -Md 3000000 -Ms ffff0008 -Mt 0 -Is 6 -Id 0 -It vectorbasedforward -Il 500 -If 0 -Ii 1 -Iv 0 
r -t 7.895572951 -Hs 5 -Hd 0 -Ni 5 -Nx 210.00 -Ny 0.00 -Nz 0.00 -Ne 999.927566 -Nl MAC -Nw --- -Ma 0 -Md 3000000 -Ms ffff0008 -Mt 0 -Is 6 -Id 0 -It vectorbasedforward -Il 500 -If 0 -Ii 1 -Iv 0 
d -t 7.895597951 -Hs 5 -Hd 0 -Ni 5 -Nx 210.00 -Ny 0.00 -Nz 0.00 -Ne 999.927566 -Nl RTR -Nw Error/Collision -Ma 0 -Md 3000000 -Ms ffff0008 -Mt 0 -Is 6 -Id 0 -It vectorbasedforward -Il 500 -If 0 -Ii 1 -Iv 0 
N -t 8.000000 -n 0 -e 999.935011
N -t 8.000000 -n 1 -e 999.936000
N -t 8.000000 -n 2 -e 999.931365
N -t 8.000000 -n 3 -e 999.927720
N -t 8.000000 -n 4 -e 999.934021
N -t 8.000000 -n 5 -e 999.926731
N -t 8.000000 -n 6 -e 999.928709
s -t 8.153082549 -Hs 4 -Hd 0 -Ni 4 -Nx 240.00 -Ny 49.00 -Nz 0.00 -Ne 999.934021 -Nl MAC -Nw --- -Ma 0 -Md 4000000 -Ms ffff0008 -Mt 0 -Is 6 -Id 0 -It vectorbasedforward -Il 500 -If 0 -Ii 1 -Iv 0 
r -t 8.192718769 -Hs 5 -Hd 0 -Ni 5 -Nx 210.00 -Ny 0.00 -Nz 0.00 -Ne 999.924200 -Nl MAC -Nw --- -Ma 0 -Md 4000000 -Ms ffff0008 -Mt 0 -Is 6 -Id 0 -It vectorbasedforward -Il 500 -If 0 -Ii 1 -Iv 0 
d -t 8.192743769 -Hs 5 -Hd 0 -Ni 5 -Nx 210.00 -Ny 0.00 -Nz 0.00 -Ne 999.924200 -Nl RTR -Nw Error/Collision -Ma 0 -Md 4000000 -Ms ffff0008 -Mt 0 -Is 6 -Id 0 -It vectorbasedforward -Il 500 -If 0 -Ii 1 -Iv 0 
r -t 8.214415883 -Hs 1 -Hd 0 -Ni 1 -Nx 330.00 -Ny 49.00 -Nz 0.00 -Ne 999.933295 -Nl MAC -Nw --- -Ma 0 -Md 4000000 -Ms ffff0008 -Mt 0 -Is 6 -Id 0 -It vectorbasedforward -Il 500 -If 0 -Ii 1 -Iv 0 
s -t 8.634031537 -Hs 2 -Hd 0 -Ni 2 -Nx 380.00 -Ny -40.00 -Nz 0.00 -Ne 999.931365 -Nl MAC -Nw --- -Ma 0 -Md 2000000 -Ms ffff0008 -Mt 0 -Is 6 -Id 0 -It vectorbasedforward -Il 500 -If 0 -Ii 1 -Iv 0 
r -t 8.670798690 -Hs 0 -Hd 0 -Ni 0 -Nx 415.00 -Ny 0.00 -Nz 0.00 -Ne 999.928655 -Nl MAC -Nw --- -Ma 0 -Md 2000000 -Ms ffff0008 -Mt 0 -Is 6 -Id 0 -It vectorbasedforward -Il 500 -If 0 -Ii 1 -Iv 0 
r -t 8.695398194 -Hs 3 -Hd 0 -Ni 3 -Nx 290.00 -Ny -43.00 -Nz 0.00 -Ne 999.921167 -Nl MAC -Nw --- -Ma 0 -Md 2000000 -Ms ffff0008 -Mt 0 -Is 6 -Id 0 -It vectorbasedforward -Il 500 -If 0 -Ii 1 -Iv 0 
d -t 8.695423194 -Hs 3 -Hd 0 -Ni 3 -Nx 290.00 -Ny -43.00 -Nz 0.00 -Ne 999.921167 -Nl RTR -Nw Error/Collision -Ma 0 -Md 2000000 -Ms ffff0008 -Mt 0 -Is 6 -Id 0 -It vectorbasedforward -Il 500 -If 0 -Ii 1 -Iv 0 
N -t 9.000000 -n 0 -e 999.926021
N -t 9.000000 -n 1 -e 999.927011
N -t 9.000000 -n 2 -e 999.920709
N -t 9.000000 -n 3 -e 999.918731
N -t 9.000000 -n 4 -e 999.923365
N -t 9.000000 -n 5 -e 999.917741
N -t 9.000000 -n 6 -e 999.920709
s -t 9.012562258 -Hs 1 -Hd 0 -Ni 1 -Nx 330.00 -Ny 49.00 -Nz 0.00 -Ne 999.927011 -Nl MAC -Nw --- -Ma 0 -Md 1000000 -Ms ffff0008 -Mt 0 -Is 6 -Id 0 -It vectorbasedforward -Il 500 -If 0 -Ii 1 -Iv 0 
r -t 9.073895591 -Hs 4 -Hd 0 -Ni 4 -Nx 240.00 -Ny 49.00 -Nz 0.00 -Ne 999.921785 -Nl MAC -Nw --- -Ma 0 -Md 1000000 -Ms ffff0008 -Mt 0 -Is 6 -Id 0 -It vectorbasedforward -Il 500 -If 0 -Ii 1 -Iv 0 
d -t 9.073920591 -Hs 4 -Hd 0 -Ni 4 -Nx 240.00 -Ny 49.00 -Nz 0.00 -Ne 999.921785 -Nl RTR -Nw Error/Collision -Ma 0 -Md 1000000 -Ms ffff0008 -Mt 0 -Is 6 -Id 0 -It vectorbasedforward -Il 500 -If 0 -Ii 1 -Iv 0 
r -t 9.079303712 -Hs 0 -Hd 0 -Ni 0 -Nx 415.00 -Ny 0.00 -Nz 0.00 -Ne 999.924398 -Nl MAC -Nw --- -Ma 0 -Md 1000000 -Ms ffff0008 -Mt 0 -Is 6 -Id 0 -It vectorbasedforward -Il 500 -If 0 -Ii 1 -Iv 0 
d -t 9.079328712 -Hs 0 -Hd 0 -Ni 0 -Nx 415.00 -Ny 0.00 -Nz 0.00 -Ne 999.924398 -Nl RTR -Nw Error/Collision -Ma 0 -Md 1000000 -Ms ffff0008 -Mt 0 -Is 6 -Id 0 -It vectorbasedforward -Il 500 -If 0 -Ii 1 -Iv 0 
N -t 10.000000 -n 0 -e 999.917032
N -t 10.000000 -n 1 -e 999.916355
N -t 10.000000 -n 2 -e 999.912709
N -t 10.000000 -n 3 -e 999.910731
N -t 10.000000 -n 4 -e 999.914376
N -t 10.000000 -n 5 -e 999.909741
N -t 10.000000 -n 6 -e 999.912709
N -t 11.000000 -n 0 -e 999.909032
N -t 11.000000 -n 1 -e 999.908355
N -t 11.000000 -n 2 -e 999.904709
N -t 11.000000 -n 3 -e 999.902731
N -t 11.000000 -n 4 -e 999.906376
N -t 11.000000 -n 5 -e 999.901741
N -t 11.000000 -n 6 -e 999.904709
s -t 11.330025000 -Hs 6 -Hd 4 -Ni 6 -Nx 140.00 -Ny 0.00 -Nz 0.00 -Ne 999.904709 -Nl MAC -Nw --- -Ma 0 -Md 6000000 -Ms ffff0008 -Mt 0 -Is 6 -Id 0 -It vectorbasedforward -Il 500 -If 0 -Ii 2 -Iv 0 
r -t 11.378025000 -Hs 5 -Hd 4 -Ni 5 -Nx 210.00 -Ny 0.00 -Nz 0.00 -Ne 999.897728 -Nl MAC -Nw --- -Ma 0 -Md 6000000 -Ms ffff0008 -Mt 0 -Is 6 -Id 0 -It vectorbasedforward -Il 500 -If 0 -Ii 2 -Iv 0 
s -t 11.965797558 -Hs 5 -Hd 0 -Ni 5 -Nx 210.00 -Ny 0.00 -Nz 0.00 -Ne 999.897728 -Nl MAC -Nw --- -Ma 0 -Md 5000000 -Ms ffff0008 -Mt 0 -Is 6 -Id 0 -It vectorbasedforward -Il 500 -If 0 -Ii 2 -Iv 0 
N -t 12.000000 -n 0 -e 999.901032
N -t 12.000000 -n 1 -e 999.900355
N -t 12.000000 -n 2 -e 999.896709
N -t 12.000000 -n 3 -e 999.894731
N -t 12.000000 -n 4 -e 999.898376
N -t 12.000000 -n 5 -e 999.890096
N -t 12.000000 -n 6 -e 999.894053
r -t 12.005433777 -Hs 4 -Hd 0 -Ni 4 -Nx 240.00 -Ny 49.00 -Nz 0.00 -Ne 999.897343 -Nl MAC -Nw --- -Ma 0 -Md 5000000 -Ms ffff0008 -Mt 0 -Is 6 -Id 0 -It vectorbasedforward -Il 500 -If 0 -Ii 2 -Iv 0 
r -t 12.013797558 -Hs 6 -Hd 0 -Ni 6 -Nx 140.00 -Ny 0.00 -Nz 0.00 -Ne 999.892954 -Nl MAC -Nw --- -Ma 0 -Md 5000000 -Ms ffff0008 -Mt 0 -Is 6 -Id 0 -It vectorbasedforward -Il 500 -If 0 -Ii 2 -Iv 0 
d -t 12.013822558 -Hs 6 -Hd 0 -Ni 6 -Nx 140.00 -Ny 0.00 -Nz 0.00 -Ne 999.892954 -Nl RTR -Nw Error/Collision -Ma 0 -Md 5000000 -Ms ffff0008 -Mt 0 -Is 6 -Id 0 -It vectorbasedforward -Il 500 -If 0 -Ii 2 -Iv 0 
r -t 12.027680228 -Hs 3 -Hd 0 -Ni 3 -Nx 290.00 -Ny -43.00 -Nz 0.00 -Ne 999.893520 -Nl MAC -Nw --- -Ma 0 -Md 5000000 -Ms ffff0008 -Mt 0 -Is 6 -Id 0 -It vectorbasedforward -Il 500 -If 0 -Ii 2 -Iv 0 
s -t 12.833690280 -Hs 3 -Hd 0 -Ni 3 -Nx 290.00 -Ny -43.00 -Nz 0.00 -Ne 999.893520 -Nl MAC -Nw --- -Ma 0 -Md 3000000 -Ms ffff0008 -Mt 0 -Is 6 -Id 0 -It vectorbasedforward -Il 500 -If 0 -Ii 2 -Iv 0 
r -t 12.895056938 -Hs 2 -Hd 0 -Ni 2 -Nx 380.00 -Ny -40.00 -Nz 0.00 -Ne 999.888560 -Nl MAC -Nw --- -Ma 0 -Md 3000000 -Ms ffff0008 -Mt 0 -Is 6 -Id 0 -It vectorbasedforward -Il 500 -If 0 -Ii 2 -Iv 0 
r -t 12.895572951 -Hs 5 -Hd 0 -Ni 5 -Nx 210.00 -Ny 0.00 -Nz 0.00 -Ne 999.881942 -Nl MAC -Nw --- -Ma 0 -Md 3000000 -Ms ffff0008 -Mt 0 -Is 6 -Id 0 -It vectorbasedforward -Il 500 -If 0 -Ii 2 -Iv 0 
d -t 12.895597951 -Hs 5 -Hd 0 -Ni 5 -Nx 210.00 -Ny 0.00 -Nz 0.00 -Ne 999.881942 -Nl RTR -Nw Error/Collision -Ma 0 -Md 3000000 -Ms ffff0008 -Mt 0 -Is 6 -Id 0 -It vectorbasedforward -Il 500 -If 0 -Ii 2 -Iv 0 
N -t 13.000000 -n 0 -e 999.893032
N -t 13.000000 -n 1 -e 999.892355
N -t 13.000000 -n 2 -e 999.887720
N -t 13.000000 -n 3 -e 999.883085
N -t 13.000000 -n 4 -e 999.889387
N -t 13.000000 -n 5 -e 999.881107
N -t 13.000000 -n 6 -e 999.885064
s -t 13.153082549 -Hs 4 -Hd 0 -Ni 4 -Nx 240.00 -Ny 49.00 -Nz 0.00 -Ne 999.889387 -Nl MAC -Nw --- -Ma 0 -Md 4000000 -Ms ffff0008 -Mt 0 -Is 6 -Id 0 -It vectorbasedforward -Il 500 -If 0 -Ii 2 -Iv 0 
r -t 13.192718769 -Hs 5 -Hd 0 -Ni 5 -Nx 210.00 -Ny 0.00 -Nz 0.00 -Ne 999.878576 -Nl MAC -Nw --- -Ma 0 -Md 4000000 -Ms ffff0008 -Mt 0 -Is 6 -Id 0 -It vectorbasedforward -Il 500 -If 0 -Ii 2 -Iv 0 
d -t 13.192743769 -Hs 5 -Hd 0 -Ni 5 -Nx 210.00 -Ny 0.00 -Nz 0.00 -Ne 999.878576 -Nl RTR -Nw Error/Collision -Ma 0 -Md 4000000 -Ms ffff0008 -Mt 0 -Is 6 -Id 0 -It vectorbasedforward -Il 500 -If 0 -Ii 2 -Iv 0 
r -t 13.214415883 -Hs 1 -Hd 0 -Ni 1 -Nx 330.00 -Ny 49.00 -Nz 0.00 -Ne 999.889650 -Nl MAC -Nw --- -Ma 0 -Md 4000000 -Ms ffff0008 -Mt 0 -Is 6 -Id 0 -It vectorbasedforward -Il 500 -If 0 -Ii 2 -Iv 0 
s -t 13.634031537 -Hs 2 -Hd 0 -Ni 2 -Nx 380.00 -Ny -40.00 -Nz 0.00 -Ne 999.887720 -Nl MAC -Nw --- -Ma 0 -Md 2000000 -Ms ffff0008 -Mt 0 -Is 6 -Id 0 -It vectorbasedforward -Il 500 -If 0 -Ii 2 -Iv 0 
r -t 13.670798690 -Hs 0 -Hd 0 -Ni 0 -Nx 415.00 -Ny 0.00 -Nz 0.00 -Ne 999.886676 -Nl MAC -Nw --- -Ma 0 -Md 2000000 -Ms ffff0008 -Mt 0 -Is 6 -Id 0 -It vectorbasedforward -Il 500 -If 0 -Ii 2 -Iv 0 
r -t 13.695398194 -Hs 3 -Hd 0 -Ni 3 -Nx 290.00 -Ny -43.00 -Nz 0.00 -Ne 999.876533 -Nl MAC -Nw --- -Ma 0 -Md 2000000 -Ms ffff0008 -Mt 0 -Is 6 -Id 0 -It vectorbasedforward -Il 500 -If 0 -Ii 2 -Iv 0 
d -t 13.695423194 -Hs 3 -Hd 0 -Ni 3 -Nx 290.00 -Ny -43.00 -Nz 0.00 -Ne 999.876533 -Nl RTR -Nw Error/Collision -Ma 0 -Md 2000000 -Ms ffff0008 -Mt 0 -Is 6 -Id 0 -It vectorbasedforward -Il 500 -If 0 -Ii 2 -Iv 0 
N -t 14.000000 -n 0 -e 999.884043
N -t 14.000000 -n 1 -e 999.883365
N -t 14.000000 -n 2 -e 999.877064
N -t 14.000000 -n 3 -e 999.874096
N -t 14.000000 -n 4 -e 999.878731
N -t 14.000000 -n 5 -e 999.872117
N -t 14.000000 -n 6 -e 999.877064
s -t 14.012562258 -Hs 1 -Hd 0 -Ni 1 -Nx 330.00 -Ny 49.00 -Nz 0.00 -Ne 999.883365 -Nl MAC -Nw --- -Ma 0 -Md 1000000 -Ms ffff0008 -Mt 0 -Is 6 -Id 0 -It vectorbasedforward -Il 500 -If 0 -Ii 2 -Iv 0 
d -t 14.073895591 -Hs 4 -Hd 0 -Ni 4 -Nx 240.00 -Ny 49.00 -Nz 0.00 -Ne 999.877150 -Nl MAC -Nw Error/Collision -Ma 0 -Md 1000000 -Ms ffff0008 -Mt 0 -Is 6 -Id 0 -It vectorbasedforward -Il 500 -If 0 -Ii 2 -Iv 0 
r -t 14.079303712 -Hs 0 -Hd 0 -Ni 0 -Nx 415.00 -Ny 0.00 -Nz 0.00 -Ne 999.882419 -Nl MAC -Nw --- -Ma 0 -Md 1000000 -Ms ffff0008 -Mt 0 -Is 6 -Id 0 -It vectorbasedforward -Il 500 -If 0 -Ii 2 -Iv 0 
d -t 14.079328712 -Hs 0 -Hd 0 -Ni 0 -Nx 415.00 -Ny 0.00 -Nz 0.00 -Ne 999.882419 -Nl RTR -Nw Error/Collision -Ma 0 -Md 1000000 -Ms ffff0008 -Mt 0 -Is 6 -Id 0 -It vectorbasedforward -Il 500 -If 0 -Ii 2 -Iv 0 
N -t 15.000000 -n 0 -e 999.875053
N -t 15.000000 -n 1 -e 999.872709
N -t 15.000000 -n 2 -e 999.869064
N -t 15.000000 -n 3 -e 999.866096
N -t 15.000000 -n 4 -e 999.869741
N -t 15.000000 -n 5 -e 999.864117
N -t 15.000000 -n 6 -e 999.869064
N -t 16.000000 -n 0 -e 999.867053
N -t 16.000000 -n 1 -e 999.864709
N -t 16.000000 -n 2 -e 999.861064
N -t 16.000000 -n 3 -e 999.858096
N -t 16.000000 -n 4 -e 999.861741
N -t 16.000000 -n 5 -e 999.856117
N -t 16.000000 -n 6 -e 999.861064
s -t 16.330025000 -Hs 6 -Hd 4 -Ni 6 -Nx 140.00 -Ny 0.00 -Nz 0.00 -Ne 999.861064 -Nl MAC -Nw --- -Ma 0 -Md 6000000 -Ms ffff0008 -Mt 0 -Is 6 -Id 0 -It vectorbasedforward -Il 500 -If 0 -Ii 3 -Iv 0 
r -t 16.378025000 -Hs 5 -Hd 4 -Ni 5 -Nx 210.00 -Ny 0.00 -Nz 0.00 -Ne 999.852104 -Nl MAC -Nw --- -Ma 0 -Md 6000000 -Ms ffff0008 -Mt 0 -Is 6 -Id 0 -It vectorbasedforward -Il 500 -If 0 -Ii 3 -Iv 0 
s -t 16.965797558 -Hs 5 -Hd 0 -Ni 5 -Nx 210.00 -Ny 0.00 -Nz 0.00 -Ne 999.852104 -Nl MAC -Nw --- -Ma 0 -Md 5000000 -Ms ffff0008 -Mt 0 -Is 6 -Id 0 -It vectorbasedforward -Il 500 -If 0 -Ii 3 -Iv 0 
N -t 17.000000 -n 0 -e 999.859053
N -t 17.000000 -n 1 -e 999.856709
N -t 17.000000 -n 2 -e 999.853064
N -t 17.000000 -n 3 -e 999.850096
N -t 17.000000 -n 4 -e 999.853741
N -t 17.000000 -n 5 -e 999.844472
N -t 17.000000 -n 6 -e 999.850408
r -t 17.005433777 -Hs 4 -Hd 0 -Ni 4 -Nx 240.00 -Ny 49.00 -Nz 0.00 -Ne 999.852709 -Nl MAC -Nw --- -Ma 0 -Md 5000000 -Ms ffff0008 -Mt 0 -Is 6 -Id 0 -It vectorbasedforward -Il 500 -If 0 -Ii 3 -Iv 0 
r -t 17.013797558 -Hs 6 -Hd 0 -Ni 6 -Nx 140.00 -Ny 0.00 -Nz 0.00 -Ne 999.849308 -Nl MAC -Nw --- -Ma 0 -Md 5000000 -Ms ffff0008 -Mt 0 -Is 6 -Id 0 -It vectorbasedforward -Il 500 -If 0 -Ii 3 -Iv 0 
d -t 17.013822558 -Hs 6 -Hd 0 -Ni 6 -Nx 140.00 -Ny 0.00 -Nz 0.00 -Ne 999.849308 -Nl RTR -Nw Error/Collision -Ma 0 -Md 5000000 -Ms ffff0008 -Mt 0 -Is 6 -Id 0 -It vectorbasedforward -Il 500 -If 0 -Ii 3 -Iv 0 
r -t 17.027680228 -Hs 3 -Hd 0 -Ni 3 -Nx 290.00 -Ny -43.00 -Nz 0.00 -Ne 999.848885 -Nl MAC -Nw --- -Ma 0 -Md 5000000 -Ms ffff0008 -Mt 0 -Is 6 -Id 0 -It vectorbasedforward -Il 500 -If 0 -Ii 3 -Iv 0 
s -t 17.833690280 -Hs 3 -Hd 0 -Ni 3 -Nx 290.00 -Ny -43.00 -Nz 0.00 -Ne 999.848885 -Nl MAC -Nw --- -Ma 0 -Md 3000000 -Ms ffff0008 -Mt 0 -Is 6 -Id 0 -It vectorbasedforward -Il 500 -If 0 -Ii 3 -Iv 0 
r -t 17.895056938 -Hs 2 -Hd 0 -Ni 2 -Nx 380.00 -Ny -40.00 -Nz 0.00 -Ne 999.844914 -Nl MAC -Nw --- -Ma 0 -Md 3000000 -Ms ffff0008 -Mt 0 -Is 6 -Id 0 -It vectorbasedforward -Il 500 -If 0 -Ii 3 -Iv 0 
d -t 17.895572951 -Hs 5 -Hd 0 -Ni 5 -Nx 210.00 -Ny 0.00 -Nz 0.00 -Ne 999.836318 -Nl MAC -Nw Error/Collision -Ma 0 -Md 3000000 -Ms ffff0008 -Mt 0 -Is 6 -Id 0 -It vectorbasedforward -Il 500 -If 0 -Ii 3 -Iv 0 
N -t 18.000000 -n 0 -e 999.851053
N -t 18.000000 -n 1 -e 999.848709
N -t 18.000000 -n 2 -e 999.844075
N -t 18.000000 -n 3 -e 999.838451
N -t 18.000000 -n 4 -e 999.844752
N -t 18.000000 -n 5 -e 999.835483
N -t 18.000000 -n 6 -e 999.841419
s -t 18.153082549 -Hs 4 -Hd 0 -Ni 4 -Nx 240.00 -Ny 49.00 -Nz 0.00 -Ne 999.844752 -Nl MAC -Nw --- -Ma 0 -Md 4000000 -Ms ffff0008 -Mt 0 -Is 6 -Id 0 -It vectorbasedforward -Il 500 -If 0 -Ii 3 -Iv 0 
d -t 18.192718769 -Hs 5 -Hd 0 -Ni 5 -Nx 210.00 -Ny 0.00 -Nz 0.00 -Ne 999.832952 -Nl MAC -Nw Error/Collision -Ma 0 -Md 4000000 -Ms ffff0008 -Mt 0 -Is 6 -Id 0 -It vectorbasedforward -Il 500 -If 0 -Ii 3 -Iv 0 
r -t 18.214415883 -Hs 1 -Hd 0 -Ni 1 -Nx 330.00 -Ny 49.00 -Nz 0.00 -Ne 999.846005 -Nl MAC -Nw --- -Ma 0 -Md 4000000 -Ms ffff0008 -Mt 0 -Is 6 -Id 0 -It vectorbasedforward -Il 500 -If 0 -Ii 3 -Iv 0 
s -t 18.634031537 -Hs 2 -Hd 0 -Ni 2 -Nx 380.00 -Ny -40.00 -Nz 0.00 -Ne 999.844075 -Nl MAC -Nw --- -Ma 0 -Md 2000000 -Ms ffff0008 -Mt 0 -Is 6 -Id 0 -It vectorbasedforward -Il 500 -If 0 -Ii 3 -Iv 0 
r -t 18.670798690 -Hs 0 -Hd 0 -Ni 0 -Nx 415.00 -Ny 0.00 -Nz 0.00 -Ne 999.844698 -Nl MAC -Nw --- -Ma 0 -Md 2000000 -Ms ffff0008 -Mt 0 -Is 6 -Id 0 -It vectorbasedforward -Il 500 -If 0 -Ii 3 -Iv 0 
r -t 18.695398194 -Hs 3 -Hd 0 -Ni 3 -Nx 290.00 -Ny -43.00 -Nz 0.00 -Ne 999.831898 -Nl MAC -Nw --- -Ma 0 -Md 2000000 -Ms ffff0008 -Mt 0 -Is 6 -Id 0 -It vectorbasedforward -Il 500 -If 0 -Ii 3 -Iv 0 
d -t 18.695423194 -Hs 3 -Hd 0 -Ni 3 -Nx 290.00 -Ny -43.00 -Nz 0.00 -Ne 999.831898 -Nl RTR -Nw Error/Collision -Ma 0 -Md 2000000 -Ms ffff0008 -Mt 0 -Is 6 -Id 0 -It vectorbasedforward -Il 500 -If 0 -Ii 3 -Iv 0 
N -t 19.000000 -n 0 -e 999.842064
N -t 19.000000 -n 1 -e 999.839720
N -t 19.000000 -n 2 -e 999.833419
N -t 19.000000 -n 3 -e 999.829461
N -t 19.000000 -n 4 -e 999.834096
N -t 19.000000 -n 5 -e 999.826493
N -t 19.000000 -n 6 -e 999.833419
s -t 19.012562258 -Hs 1 -Hd 0 -Ni 1 -Nx 330.00 -Ny 49.00 -Nz 0.00 -Ne 999.839720 -Nl MAC -Nw --- -Ma 0 -Md 1000000 -Ms ffff0008 -Mt 0 -Is 6 -Id 0 -It vectorbasedforward -Il 500 -If 0 -Ii 3 -Iv 0 
d -t 19.073895591 -Hs 4 -Hd 0 -Ni 4 -Nx 240.00 -Ny 49.00 -Nz 0.00 -Ne 999.832516 -Nl MAC -Nw Error/Collision -Ma 0 -Md 1000000 -Ms ffff0008 -Mt 0 -Is 6 -Id 0 -It vectorbasedforward -Il 500 -If 0 -Ii 3 -Iv 0 
r -t 19.079303712 -Hs 0 -Hd 0 -Ni 0 -Nx 415.00 -Ny 0.00 -Nz 0.00 -Ne 999.840440 -Nl MAC -Nw --- -Ma 0 -Md 1000000 -Ms ffff0008 -Mt 0 -Is 6 -Id 0 -It vectorbasedforward -Il 500 -If 0 -Ii 3 -Iv 0 
d -t 19.079328712 -Hs 0 -Hd 0 -Ni 0 -Nx 415.00 -Ny 0.00 -Nz 0.00 -Ne 999.840440 -Nl RTR -Nw Error/Collision -Ma 0 -Md 1000000 -Ms ffff0008 -Mt 0 -Is 6 -Id 0 -It vectorbasedforward -Il 500 -If 0 -Ii 3 -Iv 0 
N -t 20.000000 -n 0 -e 999.833075
N -t 20.000000 -n 1 -e 999.829064
N -t 20.000000 -n 2 -e 999.825419
N -t 20.000000 -n 3 -e 999.821461
N -t 20.000000 -n 4 -e 999.825107
N -t 20.000000 -n 5 -e 999.818493
N -t 20.000000 -n 6 -e 999.825419
N -t 21.000000 -n 0 -e 999.825075
N -t 21.000000 -n 1 -e 999.821064
N -t 21.000000 -n 2 -e 999.817419
N -t 21.000000 -n 3 -e 999.813461
N -t 21.000000 -n 4 -e 999.817107
N -t 21.000000 -n 5 -e 999.810493
N -t 21.000000 -n 6 -e 999.817419
s -t 21.330025000 -Hs 6 -Hd 4 -Ni 6 -Nx 140.00 -Ny 0.00 -Nz 0.00 -Ne 999.817419 -Nl MAC -Nw --- -Ma 0 -Md 6000000 -Ms ffff0008 -Mt 0 -Is 6 -Id 0 -It vectorbasedforward -Il 500 -If 0 -Ii 4 -Iv 0 
r -t 21.378025000 -Hs 5 -Hd 4 -Ni 5 -Nx 210.00 -Ny 0.00 -Nz 0.00 -Ne 999.806480 -Nl MAC -Nw --- -Ma 0 -Md 6000000 -Ms ffff0008 -Mt 0 -Is 6 -Id 0 -It vectorbasedforward -Il 500 -If 0 -Ii 4 -Iv 0 
s -t 21.965797558 -Hs 5 -Hd 0 -Ni 5 -Nx 210.00 -Ny 0.00 -Nz 0.00 -Ne 999.806480 -Nl MAC -Nw --- -Ma 0 -Md 5000000 -Ms ffff0008 -Mt 0 -Is 6 -Id 0 -It vectorbasedforward -Il 500 -If 0 -Ii 4 -Iv 0 
N -t 22.000000 -n 0 -e 999.817075
N -t 22.000000 -n 1 -e 999.813064
N -t 22.000000 -n 2 -e 999.809419
N -t 22.000000 -n 3 -e 999.805461
N -t 22.000000 -n 4 -e 999.809107
N -t 22.000000 -n 5 -e 999.798848
N -t 22.000000 -n 6 -e 999.806763
r -t 22.005433777 -Hs 4 -Hd 0 -Ni 4 -Nx 240.00 -Ny 49.00 -Nz 0.00 -Ne 999.808074 -Nl MAC -Nw --- -Ma 0 -Md 5000000 -Ms ffff0008 -Mt 0 -Is 6 -Id 0 -It vectorbasedforward -Il 500 -If 0 -Ii 4 -Iv 0 
r -t 22.013797558 -Hs 6 -Hd 0 -Ni 6 -Nx 140.00 -Ny 0.00 -Nz 0.00 -Ne 999.805663 -Nl MAC -Nw --- -Ma 0 -Md 5000000 -Ms ffff0008 -Mt 0 -Is 6 -Id 0 -It vectorbasedforward -Il 500 -If 0 -Ii 4 -Iv 0 
d -t 22.013822558 -Hs 6 -Hd 0 -Ni 6 -Nx 140.00 -Ny 0.00 -Nz 0.00 -Ne 999.805663 -Nl RTR -Nw Error/Collision -Ma 0 -Md 5000000 -Ms ffff0008 -Mt 0 -Is 6 -Id 0 -It vectorbasedforward -Il 500 -If 0 -Ii 4 -Iv 0 
r -t 22.027680228 -Hs 3 -Hd 0 -Ni 3 -Nx 290.00 -Ny -43.00 -Nz 0.00 -Ne 999.804251 -Nl MAC -Nw --- -Ma 0 -Md 5000000 -Ms ffff0008 -Mt 0 -Is 6 -Id 0 -It vectorbasedforward -Il 500 -If 0 -Ii 4 -Iv 0 
s -t 22.833690280 -Hs 3 -Hd 0 -Ni 3 -Nx 290.00 -Ny -43.00 -Nz 0.00 -Ne 999.804251 -Nl MAC -Nw --- -Ma 0 -Md 3000000 -Ms ffff0008 -Mt 0 -Is 6 -Id 0 -It vectorbasedforward -Il 500 -If 0 -Ii 4 -Iv 0 
r -t 22.895056938 -Hs 2 -Hd 0 -Ni 2 -Nx 380.00 -Ny -40.00 -Nz 0.00 -Ne 999.801269 -Nl MAC -Nw --- -Ma 0 -Md 3000000 -Ms ffff0008 -Mt 0 -Is 6 -Id 0 -It vectorbasedforward -Il 500 -If 0 -Ii 4 -Iv 0 
d -t 22.895572951 -Hs 5 -Hd 0 -Ni 5 -Nx 210.00 -Ny 0.00 -Nz 0.00 -Ne 999.790694 -Nl MAC -Nw Error/Collision -Ma 0 -Md 3000000 -Ms ffff0008 -Mt 0 -Is 6 -Id 0 -It vectorbasedforward -Il 500 -If 0 -Ii 4 -Iv 0 
N -t 23.000000 -n 0 -e 999.809075
N -t 23.000000 -n 1 -e 999.805064
N -t 23.000000 -n 2 -e 999.800429
N -t 23.000000 -n 3 -e 999.793816
N -t 23.000000 -n 4 -e 999.800117
N -t 23.000000 -n 5 -e 999.789859
N -t 23.000000 -n 6 -e 999.797773
s -t 23.153082549 -Hs 4 -Hd 0 -Ni 4 -Nx 240.00 -Ny 49.00 -Nz 0.00 -Ne 999.800117 -Nl MAC -Nw --- -Ma 0 -Md 4000000 -Ms ffff0008 -Mt 0 -Is 6 -Id 0 -It vectorbasedforward -Il 500 -If 0 -Ii 4 -Iv 0 
r -t 23.192718769 -Hs 5 -Hd 0 -Ni 5 -Nx 210.00 -Ny 0.00 -Nz 0.00 -Ne 999.787328 -Nl MAC -Nw --- -Ma 0 -Md 4000000 -Ms ffff0008 -Mt 0 -Is 6 -Id 0 -It vectorbasedforward -Il 500 -If 0 -Ii 4 -Iv 0 
d -t 23.192743769 -Hs 5 -Hd 0 -Ni 5 -Nx 210.00 -Ny 0.00 -Nz 0.00 -Ne 999.787328 -Nl RTR -Nw Error/Collision -Ma 0 -Md 4000000 -Ms ffff0008 -Mt 0 -Is 6 -Id 0 -It vectorbasedforward -Il 500 -If 0 -Ii 4 -Iv 0 
r -t 23.214415883 -Hs 1 -Hd 0 -Ni 1 -Nx 330.00 -Ny 49.00 -Nz 0.00 -Ne 999.802359 -Nl MAC -Nw --- -Ma 0 -Md 4000000 -Ms ffff0008 -Mt 0 -Is 6 -Id 0 -It vectorbasedforward -Il 500 -If 0 -Ii 4 -Iv 0 
s -t 23.634031537 -Hs 2 -Hd 0 -Ni 2 -Nx 380.00 -Ny -40.00 -Nz 0.00 -Ne 999.800429 -Nl MAC -Nw --- -Ma 0 -Md 2000000 -Ms ffff0008 -Mt 0 -Is 6 -Id 0 -It vectorbasedforward -Il 500 -If 0 -Ii 4 -Iv 0 
r -t 23.670798690 -Hs 0 -Hd 0 -Ni 0 -Nx 415.00 -Ny 0.00 -Nz 0.00 -Ne 999.802719 -Nl MAC -Nw --- -Ma 0 -Md 2000000 -Ms ffff0008 -Mt 0 -Is 6 -Id 0 -It vectorbasedforward -Il 500 -If 0 -Ii 4 -Iv 0 
r -t 23.695398194 -Hs 3 -Hd 0 -Ni 3 -Nx 290.00 -Ny -43.00 -Nz 0.00 -Ne 999.787263 -Nl MAC -Nw --- -Ma 0 -Md 2000000 -Ms ffff0008 -Mt 0 -Is 6 -Id 0 -It vectorbasedforward -Il 500 -If 0 -Ii 4 -Iv 0 
d -t 23.695423194 -Hs 3 -Hd 0 -Ni 3 -Nx 290.00 -Ny -43.00 -Nz 0.00 -Ne 999.787263 -Nl RTR -Nw Error/Collision -Ma 0 -Md 2000000 -Ms ffff0008 -Mt 0 -Is 6 -Id 0 -It vectorbasedforward -Il 500 -If 0 -Ii 4 -Iv 0 
N -t 24.000000 -n 0 -e 999.800085
N -t 24.000000 -n 1 -e 999.796075
N -t 24.000000 -n 2 -e 999.789773
N -t 24.000000 -n 3 -e 999.784827
N -t 24.000000 -n 4 -e 999.789461
N -t 24.000000 -n 5 -e 999.780869
N -t 24.000000 -n 6 -e 999.789773
s -t 24.012562258 -Hs 1 -Hd 0 -Ni 1 -Nx 330.00 -Ny 49.00 -Nz 0.00 -Ne 999.796075 -Nl MAC -Nw --- -Ma 0 -Md 1000000 -Ms ffff0008 -Mt 0 -Is 6 -Id 0 -It vectorbasedforward -Il 500 -If 0 -Ii 4 -Iv 0 
d -t 24.073895591 -Hs 4 -Hd 0 -Ni 4 -Nx 240.00 -Ny 49.00 -Nz 0.00 -Ne 999.787881 -Nl MAC -Nw Error/Collision -Ma 0 -Md 1000000 -Ms ffff0008 -Mt 0 -Is 6 -Id 0 -It vectorbasedforward -Il 500 -If 0 -Ii 4 -Iv 0 
r -t 24.079303712 -Hs 0 -Hd 0 -Ni 0 -Nx 415.00 -Ny 0.00 -Nz 0.00 -Ne 999.798462 -Nl MAC -Nw --- -Ma 0 -Md 1000000 -Ms ffff0008 -Mt 0 -Is 6 -Id 0 -It vectorbasedforward -Il 500 -If 0 -Ii 4 -Iv 0 
d -t 24.079328712 -Hs 0 -Hd 0 -Ni 0 -Nx 415.00 -Ny 0.00 -Nz 0.00 -Ne 999.798462 -Nl RTR -Nw Error/Collision -Ma 0 -Md 1000000 -Ms ffff0008 -Mt 0 -Is 6 -Id 0 -It vectorbasedforward -Il 500 -If 0 -Ii 4 -Iv 0 
N -t 25.000000 -n 0 -e 999.791096
N -t 25.000000 -n 1 -e 999.785419
N -t 25.000000 -n 2 -e 999.781773
N -t 25.000000 -n 3 -e 999.776827
N -t 25.000000 -n 4 -e 999.780472
N -t 25.000000 -n 5 -e 999.772869
N -t 25.000000 -n 6 -e 999.781773
N -t 26.000000 -n 0 -e 999.783096
N -t 26.000000 -n 1 -e 999.777419
N -t 26.000000 -n 2 -e 999.773773
N -t 26.000000 -n 3 -e 999.768827
N -t 26.000000 -n 4 -e 999.772472
N -t 26.000000 -n 5 -e 999.764869
N -t 26.000000 -n 6 -e 999.773773
s -t 26.330025000 -Hs 6 -Hd 4 -Ni 6 -Nx 140.00 -Ny 0.00 -Nz 0.00 -Ne 999.773773 -Nl MAC -Nw --- -Ma 0 -Md 6000000 -Ms ffff0008 -Mt 0 -Is 6 -Id 0 -It vectorbasedforward -Il 500 -If 0 -Ii 5 -Iv 0 
r -t 26.378025000 -Hs 5 -Hd 4 -Ni 5 -Nx 210.00 -Ny 0.00 -Nz 0.00 -Ne 999.760856 -Nl MAC -Nw --- -Ma 0 -Md 6000000 -Ms ffff0008 -Mt 0 -Is 6 -Id 0 -It vectorbasedforward -Il 500 -If 0 -Ii 5 -Iv 0 
s -t 26.965797558 -Hs 5 -Hd 0 -Ni 5 -Nx 210.00 -Ny 0.00 -Nz 0.00 -Ne 999.760856 -Nl MAC -Nw --- -Ma 0 -Md 5000000 -Ms ffff0008 -Mt 0 -Is 6 -Id 0 -It vectorbasedforward -Il 500 -If 0 -Ii 5 -Iv 0 
N -t 27.000000 -n 0 -e 999.775096
N -t 27.000000 -n 1 -e 999.769419
N -t 27.000000 -n 2 -e 999.765773
N -t 27.000000 -n 3 -e 999.760827
N -t 27.000000 -n 4 -e 999.764472
N -t 27.000000 -n 5 -e 999.753224
N -t 27.000000 -n 6 -e 999.763117
r -t 27.005433777 -Hs 4 -Hd 0 -Ni 4 -Nx 240.00 -Ny 49.00 -Nz 0.00 -Ne 999.763439 -Nl MAC -Nw --- -Ma 0 -Md 5000000 -Ms ffff0008 -Mt 0 -Is 6 -Id 0 -It vectorbasedforward -Il 500 -If 0 -Ii 5 -Iv 0 
r -t 27.013797558 -Hs 6 -Hd 0 -Ni 6 -Nx 140.00 -Ny 0.00 -Nz 0.00 -Ne 999.762018 -Nl MAC -Nw --- -Ma 0 -Md 5000000 -Ms ffff0008 -Mt 0 -Is 6 -Id 0 -It vectorbasedforward -Il 500 -If 0 -Ii 5 -Iv 0 
d -t 27.013822558 -Hs 6 -Hd 0 -Ni 6 -Nx 140.00 -Ny 0.00 -Nz 0.00 -Ne 999.762018 -Nl RTR -Nw Error/Collision -Ma 0 -Md 5000000 -Ms ffff0008 -Mt 0 -Is 6 -Id 0 -It vectorbasedforward -Il 500 -If 0 -Ii 5 -Iv 0 
r -t 27.027680228 -Hs 3 -Hd 0 -Ni 3 -Nx 290.00 -Ny -43.00 -Nz 0.00 -Ne 999.759616 -Nl MAC -Nw --- -Ma 0 -Md 5000000 -Ms ffff0008 -Mt 0 -Is 6 -Id 0 -It vectorbasedforward -Il 500 -If 0 -Ii 5 -Iv 0 
s -t 27.833690280 -Hs 3 -Hd 0 -Ni 3 -Nx 290.00 -Ny -43.00 -Nz 0.00 -Ne 999.759616 -Nl MAC -Nw --- -Ma 0 -Md 3000000 -Ms ffff0008 -Mt 0 -Is 6 -Id 0 -It vectorbasedforward -Il 500 -If 0 -Ii 5 -Iv 0 
r -t 27.895056938 -Hs 2 -Hd 0 -Ni 2 -Nx 380.00 -Ny -40.00 -Nz 0.00 -Ne 999.757624 -Nl MAC -Nw --- -Ma 0 -Md 3000000 -Ms ffff0008 -Mt 0 -Is 6 -Id 0 -It vectorbasedforward -Il 500 -If 0 -Ii 5 -Iv 0 
d -t 27.895572951 -Hs 5 -Hd 0 -Ni 5 -Nx 210.00 -Ny 0.00 -Nz 0.00 -Ne 999.745070 -Nl MAC -Nw Error/Collision -Ma 0 -Md 3000000 -Ms ffff0008 -Mt 0 -Is 6 -Id 0 -It vectorbasedforward -Il 500 -If 0 -Ii 5 -Iv 0 
N -t 28.000000 -n 0 -e 999.767096
N -t 28.000000 -n 1 -e 999.761419
N -t 28.000000 -n 2 -e 999.756784
N -t 28.000000 -n 3 -e 999.749181
N -t 28.000000 -n 4 -e 999.755483
N -t 28.000000 -n 5 -e 999.744235
N -t 28.000000 -n 6 -e 999.754128
s -t 28.153082549 -Hs 4 -Hd 0 -Ni 4 -Nx 240.00 -Ny 49.00 -Nz 0.00 -Ne 999.755483 -Nl MAC -Nw --- -Ma 0 -Md 4000000 -Ms ffff0008 -Mt 0 -Is 6 -Id 0 -It vectorbasedforward -Il 500 -If 0 -Ii 5 -Iv 0 
r -t 28.192718769 -Hs 5 -Hd 0 -Ni 5 -Nx 210.00 -Ny 0.00 -Nz 0.00 -Ne 999.741704 -Nl MAC -Nw --- -Ma 0 -Md 4000000 -Ms ffff0008 -Mt 0 -Is 6 -Id 0 -It vectorbasedforward -Il 500 -If 0 -Ii 5 -Iv 0 