n -t * -s 0  -x 415 -y 0 -Z 0 -z 10  -v circle -c green
n -t * -s 1  -x 330 -y 49 -Z 0 -z 10  -v circle -c green
n -t * -s 2  -x 380 -y -40 -Z 0 -z 10  -v circle -c green
n -t * -s 3  -x 290 -y -43 -Z 0 -z 10  -v circle -c green
n -t * -s 4  -x 240 -y 49 -Z 0 -z 10  -v circle -c green
n -t * -s 5  -x 210 -y 0 -Z 0 -z 10  -v circle -c green
n -t * -s 6  -x 140 -y 0 -Z 0 -z 10  -v circle -c green
V -t * -v 1.0a5 -a 0
W -t * -x 1000 -y 10
A -t * -n 1 -p 0 -o 0xffffffff -c 31 -a 1
A -t * -h 1 -m 2147483647 -s 0
+ -t 1.330025000 -s 6 -d 4 -p vectorbasedforward -e 500 -c 2 -a 0 -i 0 -k MAC 
- -t 1.330025000 -s 6 -d 4 -p vectorbasedforward -e 500 -c 2 -a 0 -i 0 -k MAC
h -t 1.330025000 -s 6 -d 4 -p vectorbasedforward -e 500 -c 2 -a 0 -i 0 -k MAC -R 100.000000
v -t 1.330025000 -e sim_annotation 1.330025000 1 node 6 sendout packet (vectorbasedforward) 0
r -t 1.378025000 -s 5 -d 4 -p vectorbasedforward -e 500 -c 2 -a 0 -i 0 -k MAC -R 100.000000
v -t 1.378025000 -e sim_annotation 1.378025000 2 node 4 receive vectorbasedforward 0 from 5
+ -t 1.965797558 -s 5 -d 0 -p vectorbasedforward -e 500 -c 2 -a 0 -i 0 -k MAC 
- -t 1.965797558 -s 5 -d 0 -p vectorbasedforward -e 500 -c 2 -a 0 -i 0 -k MAC
h -t 1.965797558 -s 5 -d 0 -p vectorbasedforward -e 500 -c 2 -a 0 -i 0 -k MAC -R 100.000000
v -t 1.965797558 -e sim_annotation 1.965797558 3 node 5 sendout packet (vectorbasedforward) 0
d -t 2.005433777 -s 4 -d 0 -p vectorbasedforward -e 500 -c 2 -a 0 -i 0 -k MAC
v -t 2.005433777 -e sim_annotation 2.005433777 4 node 4 drop packet(vectorbasedforward) 0
r -t 2.013797558 -s 6 -d 0 -p vectorbasedforward -e 500 -c 2 -a 0 -i 0 -k MAC -R 100.000000
v -t 2.013797558 -e sim_annotation 2.013797558 5 node 0 receive vectorbasedforward 0 from 6
d -t 2.013822558 -s 6 -d 0 -p vectorbasedforward -e 500 -c 2 -a 0 -i 0 -k RTR
v -t 2.013822558 -e sim_annotation 2.013822558 6 node 6 drop packet(vectorbasedforward) 0
r -t 2.027680228 -s 3 -d 0 -p vectorbasedforward -e 500 -c 2 -a 0 -i 0 -k MAC -R 100.000000
v -t 2.027680228 -e sim_annotation 2.027680228 7 node 0 receive vectorbasedforward 0 from 3
+ -t 2.833690280 -s 3 -d 0 -p vectorbasedforward -e 500 -c 2 -a 0 -i 0 -k MAC 
- -t 2.833690280 -s 3 -d 0 -p vectorbasedforward -e 500 -c 2 -a 0 -i 0 -k MAC
h -t 2.833690280 -s 3 -d 0 -p vectorbasedforward -e 500 -c 2 -a 0 -i 0 -k MAC -R 100.000000
v -t 2.833690280 -e sim_annotation 2.833690280 8 node 3 sendout packet (vectorbasedforward) 0
r -t 2.895056938 -s 2 -d 0 -p vectorbasedforward -e 500 -c 2 -a 0 -i 0 -k MAC -R 100.000000
v -t 2.895056938 -e sim_annotation 2.895056938 9 node 0 receive vectorbasedforward 0 from 2
r -t 2.895572951 -s 5 -d 0 -p vectorbasedforward -e 500 -c 2 -a 0 -i 0 -k MAC -R 100.000000
v -t 2.895572951 -e sim_annotation 2.895572951 10 node 0 receive vectorbasedforward 0 from 5
d -t 2.895597951 -s 5 -d 0 -p vectorbasedforward -e 500 -c 2 -a 0 -i 0 -k RTR
v -t 2.895597951 -e sim_annotation 2.895597951 11 node 5 drop packet(vectorbasedforward) 0
+ -t 3.634031537 -s 2 -d 0 -p vectorbasedforward -e 500 -c 2 -a 0 -i 0 -k MAC 
- -t 3.634031537 -s 2 -d 0 -p vectorbasedforward -e 500 -c 2 -a 0 -i 0 -k MAC
h -t 3.634031537 -s 2 -d 0 -p vectorbasedforward -e 500 -c 2 -a 0 -i 0 -k MAC -R 100.000000
v -t 3.634031537 -e sim_annotation 3.634031537 12 node 2 sendout packet (vectorbasedforward) 0
r -t 3.670798690 -s 0 -d 0 -p vectorbasedforward -e 500 -c 2 -a 0 -i 0 -k MAC -R 100.000000
v -t 3.670798690 -e sim_annotation 3.670798690 13 node 0 receive vectorbasedforward 0 from 0
r -t 3.695398194 -s 3 -d 0 -p vectorbasedforward -e 500 -c 2 -a 0 -i 0 -k MAC -R 100.000000
v -t 3.695398194 -e sim_annotation 3.695398194 14 node 0 receive vectorbasedforward 0 from 3
d -t 3.695423194 -s 3 -d 0 -p vectorbasedforward -e 500 -c 2 -a 0 -i 0 -k RTR
v -t 3.695423194 -e sim_annotation 3.695423194 15 node 3 drop packet(vectorbasedforward) 0
+ -t 6.330025000 -s 6 -d 4 -p vectorbasedforward -e 500 -c 2 -a 0 -i 1 -k MAC 
- -t 6.330025000 -s 6 -d 4 -p vectorbasedforward -e 500 -c 2 -a 0 -i 1 -k MAC
h -t 6.330025000 -s 6 -d 4 -p vectorbasedforward -e 500 -c 2 -a 0 -i 1 -k MAC -R 100.000000
v -t 6.330025000 -e sim_annotation 6.330025000 16 node 6 sendout packet (vectorbasedforward) 1
r -t 6.378025000 -s 5 -d 4 -p vectorbasedforward -e 500 -c 2 -a 0 -i 1 -k MAC -R 100.000000
v -t 6.378025000 -e sim_annotation 6.378025000 17 node 4 receive vectorbasedforward 1 from 5
+ -t 6.965797558 -s 5 -d 0 -p vectorbasedforward -e 500 -c 2 -a 0 -i 1 -k MAC 
- -t 6.965797558 -s 5 -d 0 -p vectorbasedforward -e 500 -c 2 -a 0 -i 1 -k MAC
h -t 6.965797558 -s 5 -d 0 -p vectorbasedforward -e 500 -c 2 -a 0 -i 1 -k MAC -R 100.000000
v -t 6.965797558 -e sim_annotation 6.965797558 18 node 5 sendout packet (vectorbasedforward) 1
r -t 7.005433777 -s 4 -d 0 -p vectorbasedforward -e 500 -c 2 -a 0 -i 1 -k MAC -R 100.000000
v -t 7.005433777 -e sim_annotation 7.005433777 19 node 0 receive vectorbasedforward 1 from 4
r -t 7.013797558 -s 6 -d 0 -p vectorbasedforward -e 500 -c 2 -a 0 -i 1 -k MAC -R 100.000000
v -t 7.013797558 -e sim_annotation 7.013797558 20 node 0 receive vectorbasedforward 1 from 6
d -t 7.013822558 -s 6 -d 0 -p vectorbasedforward -e 500 -c 2 -a 0 -i 1 -k RTR
v -t 7.013822558 -e sim_annotation 7.013822558 21 node 6 drop packet(vectorbasedforward) 1
r -t 7.027680228 -s 3 -d 0 -p vectorbasedforward -e 500 -c 2 -a 0 -i 1 -k MAC -R 100.000000
v -t 7.027680228 -e sim_annotation 7.027680228 22 node 0 receive vectorbasedforward 1 from 3
+ -t 7.833690280 -s 3 -d 0 -p vectorbasedforward -e 500 -c 2 -a 0 -i 1 -k MAC 
- -t 7.833690280 -s 3 -d 0 -p vectorbasedforward -e 500 -c 2 -a 0 -i 1 -k MAC
h -t 7.833690280 -s 3 -d 0 -p vectorbasedforward -e 500 -c 2 -a 0 -i 1 -k MAC -R 100.000000
v -t 7.833690280 -e sim_annotation 7.833690280 23 node 3 sendout packet (vectorbasedforward) 1
r -t 7.895056938 -s 2 -d 0 -p vectorbasedforward -e 500 -c 2 -a 0 -i 1 -k MAC -R 100.000000
v -t 7.895056938 -e sim_annotation 7.895056938 24 node 0 receive vectorbasedforward 1 from 2
r -t 7.895572951 -s 5 -d 0 -p vectorbasedforward -e 500 -c 2 -a 0 -i 1 -k MAC -R 100.000000
v -t 7.895572951 -e sim_annotation 7.895572951 25 node 0 receive vectorbasedforward 1 from 5
d -t 7.895597951 -s 5 -d 0 -p vectorbasedforward -e 500 -c 2 -a 0 -i 1 -k RTR
v -t 7.895597951 -e sim_annotation 7.895597951 26 node 5 drop packet(vectorbasedforward) 1
+ -t 8.153082549 -s 4 -d 0 -p vectorbasedforward -e 500 -c 2 -a 0 -i 1 -k MAC 
- -t 8.153082549 -s 4 -d 0 -p vectorbasedforward -e 500 -c 2 -a 0 -i 1 -k MAC
h -t 8.153082549 -s 4 -d 0 -p vectorbasedforward -e 500 -c 2 -a 0 -i 1 -k MAC -R 100.000000
v -t 8.153082549 -e sim_annotation 8.153082549 27 node 4 sendout packet (vectorbasedforward) 1
r -t 8.192718769 -s 5 -d 0 -p vectorbasedforward -e 500 -c 2 -a 0 -i 1 -k MAC -R 100.000000
v -t 8.192718769 -e sim_annotation 8.192718769 28 node 0 receive vectorbasedforward 1 from 5
d -t 8.192743769 -s 5 -d 0 -p vectorbasedforward -e 500 -c 2 -a 0 -i 1 -k RTR
v -t 8.192743769 -e sim_annotation 8.192743769 29 node 5 drop packet(vectorbasedforward) 1
r -t 8.214415883 -s 1 -d 0 -p vectorbasedforward -e 500 -c 2 -a 0 -i 1 -k MAC -R 100.000000
v -t 8.214415883 -e sim_annotation 8.214415883 30 node 0 receive vectorbasedforward 1 from 1
+ -t 8.634031537 -s 2 -d 0 -p vectorbasedforward -e 500 -c 2 -a 0 -i 1 -k MAC 
- -t 8.634031537 -s 2 -d 0 -p vectorbasedforward -e 500 -c 2 -a 0 -i 1 -k MAC
h -t 8.634031537 -s 2 -d 0 -p vectorbasedforward -e 500 -c 2 -a 0 -i 1 -k MAC -R 100.000000
v -t 8.634031537 -e sim_annotation 8.634031537 31 node 2 sendout packet (vectorbasedforward) 1
r -t 8.670798690 -s 0 -d 0 -p vectorbasedforward -e 500 -c 2 -a 0 -i 1 -k MAC -R 100.000000
v -t 8.670798690 -e sim_annotation 8.670798690 32 node 0 receive vectorbasedforward 1 from 0
r -t 8.695398194 -s 3 -d 0 -p vectorbasedforward -e 500 -c 2 -a 0 -i 1 -k MAC -R 100.000000
v -t 8.695398194 -e sim_annotation 8.695398194 33 node 0 receive vectorbasedforward 1 from 3
d -t 8.695423194 -s 3 -d 0 -p vectorbasedforward -e 500 -c 2 -a 0 -i 1 -k RTR
v -t 8.695423194 -e sim_annotation 8.695423194 34 node 3 drop packet(vectorbasedforward) 1
+ -t 9.012562258 -s 1 -d 0 -p vectorbasedforward -e 500 -c 2 -a 0 -i 1 -k MAC 
- -t 9.012562258 -s 1 -d 0 -p vectorbasedforward -e 500 -c 2 -a 0 -i 1 -k MAC
h -t 9.012562258 -s 1 -d 0 -p vectorbasedforward -e 500 -c 2 -a 0 -i 1 -k MAC -R 100.000000
v -t 9.012562258 -e sim_annotation 9.012562258 35 node 1 sendout packet (vectorbasedforward) 1
r -t 9.073895591 -s 4 -d 0 -p vectorbasedforward -e 500 -c 2 -a 0 -i 1 -k MAC -R 100.000000
v -t 9.073895591 -e sim_annotation 9.073895591 36 node 0 receive vectorbasedforward 1 from 4
d -t 9.073920591 -s 4 -d 0 -p vectorbasedforward -e 500 -c 2 -a 0 -i 1 -k RTR
v -t 9.073920591 -e sim_annotation 9.073920591 37 node 4 drop packet(vectorbasedforward) 1
r -t 9.079303712 -s 0 -d 0 -p vectorbasedforward -e 500 -c 2 -a 0 -i 1 -k MAC -R 100.000000
v -t 9.079303712 -e sim_annotation 9.079303712 38 node 0 receive vectorbasedforward 1 from 0
d -t 9.079328712 -s 0 -d 0 -p vectorbasedforward -e 500 -c 2 -a 0 -i 1 -k RTR
v -t 9.079328712 -e sim_annotation 9.079328712 39 node 0 drop packet(vectorbasedforward) 1
+ -t 11.330025000 -s 6 -d 4 -p vectorbasedforward -e 500 -c 2 -a 0 -i 2 -k MAC 
- -t 11.330025000 -s 6 -d 4 -p vectorbasedforward -e 500 -c 2 -a 0 -i 2 -k MAC
h -t 11.330025000 -s 6 -d 4 -p vectorbasedforward -e 500 -c 2 -a 0 -i 2 -k MAC -R 100.000000
v -t 11.330025000 -e sim_annotation 11.330025000 40 node 6 sendout packet (vectorbasedforward) 2
r -t 11.378025000 -s 5 -d 4 -p vectorbasedforward -e 500 -c 2 -a 0 -i 2 -k MAC -R 100.000000
v -t 11.378025000 -e sim_annotation 11.378025000 41 node 4 receive vectorbasedforward 2 from 5
+ -t 11.965797558 -s 5 -d 0 -p vectorbasedforward -e 500 -c 2 -a 0 -i 2 -k MAC 
- -t 11.965797558 -s 5 -d 0 -p vectorbasedforward -e 500 -c 2 -a 0 -i 2 -k MAC
h -t 11.965797558 -s 5 -d 0 -p vectorbasedforward -e 500 -c 2 -a 0 -i 2 -k MAC -R 100.000000
v -t 11.965797558 -e sim_annotation 11.965797558 42 node 5 sendout packet (vectorbasedforward) 2
r -t 12.005433777 -s 4 -d 0 -p vectorbasedforward -e 500 -c 2 -a 0 -i 2 -k MAC -R 100.000000
v -t 12.005433777 -e sim_annotation 12.005433777 43 node 0 receive vectorbasedforward 2 from 4
r -t 12.013797558 -s 6 -d 0 -p vectorbasedforward -e 500 -c 2 -a 0 -i 2 -k MAC -R 100.000000
v -t 12.013797558 -e sim_annotation 12.013797558 44 node 0 receive vectorbasedforward 2 from 6
d -t 12.013822558 -s 6 -d 0 -p vectorbasedforward -e 500 -c 2 -a 0 -i 2 -k RTR
v -t 12.013822558 -e sim_annotation 12.013822558 45 node 6 drop packet(vectorbasedforward) 2
r -t 12.027680228 -s 3 -d 0 -p vectorbasedforward -e 500 -c 2 -a 0 -i 2 -k MAC -R 100.000000
v -t 12.027680228 -e sim_annotation 12.027680228 46 node 0 receive vectorbasedforward 2 from 3
+ -t 12.833690280 -s 3 -d 0 -p vectorbasedforward -e 500 -c 2 -a 0 -i 2 -k MAC 
- -t 12.833690280 -s 3 -d 0 -p vectorbasedforward -e 500 -c 2 -a 0 -i 2 -k MAC
h -t 12.833690280 -s 3 -d 0 -p vectorbasedforward -e 500 -c 2 -a 0 -i 2 -k MAC -R 100.000000
v -t 12.833690280 -e sim_annotation 12.833690280 47 node 3 sendout packet (vectorbasedforward) 2
r -t 12.895056938 -s 2 -d 0 -p vectorbasedforward -e 500 -c 2 -a 0 -i 2 -k MAC -R 100.000000
v -t 12.895056938 -e sim_annotation 12.895056938 48 node 0 receive vectorbasedforward 2 from 2
r -t 12.895572951 -s 5 -d 0 -p vectorbasedforward -e 500 -c 2 -a 0 -i 2 -k MAC -R 100.000000
v -t 12.895572951 -e sim_annotation 12.895572951 49 node 0 receive vectorbasedforward 2 from 5
d -t 12.895597951 -s 5 -d 0 -p vectorbasedforward -e 500 -c 2 -a 0 -i 2 -k RTR
v -t 12.895597951 -e sim_annotation 12.895597951 50 node 5 drop packet(vectorbasedforward) 2
+ -t 13.153082549 -s 4 -d 0 -p vectorbasedforward -e 500 -c 2 -a 0 -i 2 -k MAC 
- -t 13.153082549 -s 4 -d 0 -p vectorbasedforward -e 500 -c 2 -a 0 -i 2 -k MAC
h -t 13.153082549 -s 4 -d 0 -p vectorbasedforward -e 500 -c 2 -a 0 -i 2 -k MAC -R 100.000000
v -t 13.153082549 -e sim_annotation 13.153082549 51 node 4 sendout packet (vectorbasedforward) 2
r -t 13.192718769 -s 5 -d 0 -p vectorbasedforward -e 500 -c 2 -a 0 -i 2 -k MAC -R 100.000000
v -t 13.192718769 -e sim_annotation 13.192718769 52 node 0 receive vectorbasedforward 2 from 5
d -t 13.192743769 -s 5 -d 0 -p vectorbasedforward -e 500 -c 2 -a 0 -i 2 -k RTR
v -t 13.192743769 -e sim_annotation 13.192743769 53 node 5 drop packet(vectorbasedforward) 2
r -t 13.214415883 -s 1 -d 0 -p vectorbasedforward -e 500 -c 2 -a 0 -i 2 -k MAC -R 100.000000
v -t 13.214415883 -e sim_annotation 13.214415883 54 node 0 receive vectorbasedforward 2 from 1
+ -t 13.634031537 -s 2 -d 0 -p vectorbasedforward -e 500 -c 2 -a 0 -i 2 -k MAC 
- -t 13.634031537 -s 2 -d 0 -p vectorbasedforward -e 500 -c 2 -a 0 -i 2 -k MAC
h -t 13.634031537 -s 2 -d 0 -p vectorbasedforward -e 500 -c 2 -a 0 -i 2 -k MAC -R 100.000000
v -t 13.634031537 -e sim_annotation 13.634031537 55 node 2 sendout packet (vectorbasedforward) 2
r -t 13.670798690 -s 0 -d 0 -p vectorbasedforward -e 500 -c 2 -a 0 -i 2 -k MAC -R 100.000000
v -t 13.670798690 -e sim_annotation 13.670798690 56 node 0 receive vectorbasedforward 2 from 0
r -t 13.695398194 -s 3 -d 0 -p vectorbasedforward -e 500 -c 2 -a 0 -i 2 -k MAC -R 100.000000
v -t 13.695398194 -e sim_annotation 13.695398194 57 node 0 receive vectorbasedforward 2 from 3
d -t 13.695423194 -s 3 -d 0 -p vectorbasedforward -e 500 -c 2 -a 0 -i 2 -k RTR
v -t 13.695423194 -e sim_annotation 13.695423194 58 node 3 drop packet(vectorbasedforward) 2
+ -t 14.012562258 -s 1 -d 0 -p vectorbasedforward -e 500 -c 2 -a 0 -i 2 -k MAC 
- -t 14.012562258 -s 1 -d 0 -p vectorbasedforward -e 500 -c 2 -a 0 -i 2 -k MAC
h -t 14.012562258 -s 1 -d 0 -p vectorbasedforward -e 500 -c 2 -a 0 -i 2 -k MAC -R 100.000000
v -t 14.012562258 -e sim_annotation 14.012562258 59 node 1 sendout packet (vectorbasedforward) 2
d -t 14.073895591 -s 4 -d 0 -p vectorbasedforward -e 500 -c 2 -a 0 -i 2 -k MAC
v -t 14.073895591 -e sim_annotation 14.073895591 60 node 4 drop packet(vectorbasedforward) 2
r -t 14.079303712 -s 0 -d 0 -p vectorbasedforward -e 500 -c 2 -a 0 -i 2 -k MAC -R 100.000000
v -t 14.079303712 -e sim_annotation 14.079303712 61 node 0 receive vectorbasedforward 2 from 0
d -t 14.079328712 -s 0 -d 0 -p vectorbasedforward -e 500 -c 2 -a 0 -i 2 -k RTR
v -t 14.079328712 -e sim_annotation 14.079328712 62 node 0 drop packet(vectorbasedforward) 2
+ -t 16.330025000 -s 6 -d 4 -p vectorbasedforward -e 500 -c 2 -a 0 -i 3 -k MAC 
- -t 16.330025000 -s 6 -d 4 -p vectorbasedforward -e 500 -c 2 -a 0 -i 3 -k MAC
h -t 16.330025000 -s 6 -d 4 -p vectorbasedforward -e 500 -c 2 -a 0 -i 3 -k MAC -R 100.000000
v -t 16.330025000 -e sim_annotation 16.330025000 63 node 6 sendout packet (vectorbasedforward) 3
r -t 16.378025000 -s 5 -d 4 -p vectorbasedforward -e 500 -c 2 -a 0 -i 3 -k MAC -R 100.000000
v -t 16.378025000 -e sim_annotation 16.378025000 64 node 4 receive vectorbasedforward 3 from 5
+ -t 16.965797558 -s 5 -d 0 -p vectorbasedforward -e 500 -c 2 -a 0 -i 3 -k MAC 
- -t 16.965797558 -s 5 -d 0 -p vectorbasedforward -e 500 -c 2 -a 0 -i 3 -k MAC
h -t 16.965797558 -s 5 -d 0 -p vectorbasedforward -e 500 -c 2 -a 0 -i 3 -k MAC -R 100.000000
v -t 16.965797558 -e sim_annotation 16.965797558 65 node 5 sendout packet (vectorbasedforward) 3
r -t 17.005433777 -s 4 -d 0 -p vectorbasedforward -e 500 -c 2 -a 0 -i 3 -k MAC -R 100.000000
v -t 17.005433777 -e sim_annotation 17.005433777 66 node 0 receive vectorbasedforward 3 from 4
r -t 17.013797558 -s 6 -d 0 -p vectorbasedforward -e 500 -c 2 -a 0 -i 3 -k MAC -R 100.000000
v -t 17.013797558 -e sim_annotation 17.013797558 67 node 0 receive vectorbasedforward 3 from 6
d -t 17.013822558 -s 6 -d 0 -p vectorbasedforward -e 500 -c 2 -a 0 -i 3 -k RTR
v -t 17.013822558 -e sim_annotation 17.013822558 68 node 6 drop packet(vectorbasedforward) 3
r -t 17.027680228 -s 3 -d 0 -p vectorbasedforward -e 500 -c 2 -a 0 -i 3 -k MAC -R 100.000000
v -t 17.027680228 -e sim_annotation 17.027680228 69 node 0 receive vectorbasedforward 3 from 3
+ -t 17.833690280 -s 3 -d 0 -p vectorbasedforward -e 500 -c 2 -a 0 -i 3 -k MAC 
- -t 17.833690280 -s 3 -d 0 -p vectorbasedforward -e 500 -c 2 -a 0 -i 3 -k MAC
h -t 17.833690280 -s 3 -d 0 -p vectorbasedforward -e 500 -c 2 -a 0 -i 3 -k MAC -R 100.000000
v -t 17.833690280 -e sim_annotation 17.833690280 70 node 3 sendout packet (vectorbasedforward) 3
r -t 17.895056938 -s 2 -d 0 -p vectorbasedforward -e 500 -c 2 -a 0 -i 3 -k MAC -R 100.000000
v -t 17.895056938 -e sim_annotation 17.895056938 71 node 0 receive vectorbasedforward 3 from 2
d -t 17.895572951 -s 5 -d 0 -p vectorbasedforward -e 500 -c 2 -a 0 -i 3 -k MAC
v -t 17.895572951 -e sim_annotation 17.895572951 72 node 5 drop packet(vectorbasedforward) 3
+ -t 18.153082549 -s 4 -d 0 -p vectorbasedforward -e 500 -c 2 -a 0 -i 3 -k MAC 
- -t 18.153082549 -s 4 -d 0 -p vectorbasedforward -e 500 -c 2 -a 0 -i 3 -k MAC
h -t 18.153082549 -s 4 -d 0 -p vectorbasedforward -e 500 -c 2 -a 0 -i 3 -k MAC -R 100.000000
v -t 18.153082549 -e sim_annotation 18.153082549 73 node 4 sendout packet (vectorbasedforward) 3
d -t 18.192718769 -s 5 -d 0 -p vectorbasedforward -e 500 -c 2 -a 0 -i 3 -k MAC
v -t 18.192718769 -e sim_annotation 18.192718769 74 node 5 drop packet(vectorbasedforward) 3
r -t 18.214415883 -s 1 -d 0 -p vectorbasedforward -e 500 -c 2 -a 0 -i 3 -k MAC -R 100.000000
v -t 18.214415883 -e sim_annotation 18.214415883 75 node 0 receive vectorbasedforward 3 from 1
+ -t 18.634031537 -s 2 -d 0 -p vectorbasedforward -e 500 -c 2 -a 0 -i 3 -k MAC 
- -t 18.634031537 -s 2 -d 0 -p vectorbasedforward -e 500 -c 2 -a 0 -i 3 -k MAC
h -t 18.634031537 -s 2 -d 0 -p vectorbasedforward -e 500 -c 2 -a 0 -i 3 -k MAC -R 100.000000
v -t 18.634031537 -e sim_annotation 18.634031537 76 node 2 sendout packet (vectorbasedforward) 3
r -t 18.670798690 -s 0 -d 0 -p vectorbasedforward -e 500 -c 2 -a 0 -i 3 -k MAC -R 100.000000
v -t 18.670798690 -e sim_annotation 18.670798690 77 node 0 receive vectorbasedforward 3 from 0
r -t 18.695398194 -s 3 -d 0 -p vectorbasedforward -e 500 -c 2 -a 0 -i 3 -k MAC -R 100.000000
v -t 18.695398194 -e sim_annotation 18.695398194 78 node 0 receive vectorbasedforward 3 from 3
d -t 18.695423194 -s 3 -d 0 -p vectorbasedforward -e 500 -c 2 -a 0 -i 3 -k RTR
v -t 18.695423194 -e sim_annotation 18.695423194 79 node 3 drop packet(vectorbasedforward) 3
+ -t 19.012562258 -s 1 -d 0 -p vectorbasedforward -e 500 -c 2 -a 0 -i 3 -k MAC 
- -t 19.012562258 -s 1 -d 0 -p vectorbasedforward -e 500 -c 2 -a 0 -i 3 -k MAC
h -t 19.012562258 -s 1 -d 0 -p vectorbasedforward -e 500 -c 2 -a 0 -i 3 -k MAC -R 100.000000
v -t 19.012562258 -e sim_annotation 19.012562258 80 node 1 sendout packet (vectorbasedforward) 3
d -t 19.073895591 -s 4 -d 0 -p vectorbasedforward -e 500 -c 2 -a 0 -i 3 -k MAC
v -t 19.073895591 -e sim_annotation 19.073895591 81 node 4 drop packet(vectorbasedforward) 3
r -t 19.079303712 -s 0 -d 0 -p vectorbasedforward -e 500 -c 2 -a 0 -i 3 -k MAC -R 100.000000
v -t 19.079303712 -e sim_annotation 19.079303712 82 node 0 receive vectorbasedforward 3 from 0
d -t 19.079328712 -s 0 -d 0 -p vectorbasedforward -e 500 -c 2 -a 0 -i 3 -k RTR
v -t 19.079328712 -e sim_annotation 19.079328712 83 node 0 drop packet(vectorbasedforward) 3
+ -t 21.330025000 -s 6 -d 4 -p vectorbasedforward -e 500 -c 2 -a 0 -i 4 -k MAC 
- -t 21.330025000 -s 6 -d 4 -p vectorbasedforward -e 500 -c 2 -a 0 -i 4 -k MAC
h -t 21.330025000 -s 6 -d 4 -p vectorbasedforward -e 500 -c 2 -a 0 -i 4 -k MAC -R 100.000000
v -t 21.330025000 -e sim_annotation 21.330025000 84 node 6 sendout packet (vectorbasedforward) 4
r -t 21.378025000 -s 5 -d 4 -p vectorbasedforward -e 500 -c 2 -a 0 -i 4 -k MAC -R 100.000000
v -t 21.378025000 -e sim_annotation 21.378025000 85 node 4 receive vectorbasedforward 4 from 5
+ -t 21.965797558 -s 5 -d 0 -p vectorbasedforward -e 500 -c 2 -a 0 -i 4 -k MAC 
- -t 21.965797558 -s 5 -d 0 -p vectorbasedforward -e 500 -c 2 -a 0 -i 4 -k MAC
h -t 21.965797558 -s 5 -d 0 -p vectorbasedforward -e 500 -c 2 -a 0 -i 4 -k MAC -R 100.000000
v -t 21.965797558 -e sim_annotation 21.965797558 86 node 5 sendout packet (vectorbasedforward) 4
r -t 22.005433777 -s 4 -d 0 -p vectorbasedforward -e 500 -c 2 -a 0 -i 4 -k MAC -R 100.000000
v -t 22.005433777 -e sim_annotation 22.005433777 87 node 0 receive vectorbasedforward 4 from 4
r -t 22.013797558 -s 6 -d 0 -p vectorbasedforward -e 500 -c 2 -a 0 -i 4 -k MAC -R 100.000000
v -t 22.013797558 -e sim_annotation 22.013797558 88 node 0 receive vectorbasedforward 4 from 6
d -t 22.013822558 -s 6 -d 0 -p vectorbasedforward -e 500 -c 2 -a 0 -i 4 -k RTR
v -t 22.013822558 -e sim_annotation 22.013822558 89 node 6 drop packet(vectorbasedforward) 4
r -t 22.027680228 -s 3 -d 0 -p vectorbasedforward -e 500 -c 2 -a 0 -i 4 -k MAC -R 100.000000
v -t 22.027680228 -e sim_annotation 22.027680228 90 node 0 receive vectorbasedforward 4 from 3
+ -t 22.833690280 -s 3 -d 0 -p vectorbasedforward -e 500 -c 2 -a 0 -i 4 -k MAC 
- -t 22.833690280 -s 3 -d 0 -p vectorbasedforward -e 500 -c 2 -a 0 -i 4 -k MAC
h -t 22.833690280 -s 3 -d 0 -p vectorbasedforward -e 500 -c 2 -a 0 -i 4 -k MAC -R 100.000000
v -t 22.833690280 -e sim_annotation 22.833690280 91 node 3 sendout packet (vectorbasedforward) 4
r -t 22.895056938 -s 2 -d 0 -p vectorbasedforward -e 500 -c 2 -a 0 -i 4 -k MAC -R 100.000000
v -t 22.895056938 -e sim_annotation 22.895056938 92 node 0 receive vectorbasedforward 4 from 2
d -t 22.895572951 -s 5 -d 0 -p vectorbasedforward -e 500 -c 2 -a 0 -i 4 -k MAC
v -t 22.895572951 -e sim_annotation 22.895572951 93 node 5 drop packet(vectorbasedforward) 4
+ -t 23.153082549 -s 4 -d 0 -p vectorbasedforward -e 500 -c 2 -a 0 -i 4 -k MAC 
- -t 23.153082549 -s 4 -d 0 -p vectorbasedforward -e 500 -c 2 -a 0 -i 4 -k MAC
h -t 23.153082549 -s 4 -d 0 -p vectorbasedforward -e 500 -c 2 -a 0 -i 4 -k MAC -R 100.000000
v -t 23.153082549 -e sim_annotation 23.153082549 94 node 4 sendout packet (vectorbasedforward) 4
r -t 23.192718769 -s 5 -d 0 -p vectorbasedforward -e 500 -c 2 -a 0 -i 4 -k MAC -R 100.000000
v -t 23.192718769 -e sim_annotation 23.192718769 95 node 0 receive vectorbasedforward 4 from 5
d -t 23.192743769 -s 5 -d 0 -p vectorbasedforward -e 500 -c 2 -a 0 -i 4 -k RTR
v -t 23.192743769 -e sim_annotation 23.192743769 96 node 5 drop packet(vectorbasedforward) 4
r -t 23.214415883 -s 1 -d 0 -p vectorbasedforward -e 500 -c 2 -a 0 -i 4 -k MAC -R 100.000000
v -t 23.214415883 -e sim_annotation 23.214415883 97 node 0 receive vectorbasedforward 4 from 1
+ -t 23.634031537 -s 2 -d 0 -p vectorbasedforward -e 500 -c 2 -a 0 -i 4 -k MAC 
- -t 23.634031537 -s 2 -d 0 -p vectorbasedforward -e 500 -c 2 -a 0 -i 4 -k MAC
h -t 23.634031537 -s 2 -d 0 -p vectorbasedforward -e 500 -c 2 -a 0 -i 4 -k MAC -R 100.000000
v -t 23.634031537 -e sim_annotation 23.634031537 98 node 2 sendout packet (vectorbasedforward) 4
r -t 23.670798690 -s 0 -d 0 -p vectorbasedforward -e 500 -c 2 -a 0 -i 4 -k MAC -R 100.000000
v -t 23.670798690 -e sim_annotation 23.670798690 99 node 0 receive vectorbasedforward 4 from 0
r -t 23.695398194 -s 3 -d 0 -p vectorbasedforward -e 500 -c 2 -a 0 -i 4 -k MAC -R 100.000000
v -t 23.695398194 -e sim_annotation 23.695398194 100 node 0 receive vectorbasedforward 4 from 3
d -t 23.695423194 -s 3 -d 0 -p vectorbasedforward -e 500 -c 2 -a 0 -i 4 -k RTR
v -t 23.695423194 -e sim_annotation 23.695423194 101 node 3 drop packet(vectorbasedforward) 4
+ -t 24.012562258 -s 1 -d 0 -p vectorbasedforward -e 500 -c 2 -a 0 -i 4 -k MAC 
- -t 24.012562258 -s 1 -d 0 -p vectorbasedforward -e 500 -c 2 -a 0 -i 4 -k MAC
h -t 24.012562258 -s 1 -d 0 -p vectorbasedforward -e 500 -c 2 -a 0 -i 4 -k MAC -R 100.000000
v -t 24.012562258 -e sim_annotation 24.012562258 102 node 1 sendout packet (vectorbasedforward) 4
d -t 24.073895591 -s 4 -d 0 -p vectorbasedforward -e 500 -c 2 -a 0 -i 4 -k MAC
v -t 24.073895591 -e sim_annotation 24.073895591 103 node 4 drop packet(vectorbasedforward) 4
r -t 24.079303712 -s 0 -d 0 -p vectorbasedforward -e 500 -c 2 -a 0 -i 4 -k MAC -R 100.000000
v -t 24.079303712 -e sim_annotation 24.079303712 104 node 0 receive vectorbasedforward 4 from 0
d -t 24.079328712 -s 0 -d 0 -p vectorbasedforward -e 500 -c 2 -a 0 -i 4 -k RTR
v -t 24.079328712 -e sim_annotation 24.079328712 105 node 0 drop packet(vectorbasedforward) 4
+ -t 26.330025000 -s 6 -d 4 -p vectorbasedforward -e 500 -c 2 -a 0 -i 5 -k MAC 
- -t 26.330025000 -s 6 -d 4 -p vectorbasedforward -e 500 -c 2 -a 0 -i 5 -k MAC
h -t 26.330025000 -s 6 -d 4 -p vectorbasedforward -e 500 -c 2 -a 0 -i 5 -k MAC -R 100.000000
v -t 26.330025000 -e sim_annotation 26.330025000 106 node 6 sendout packet (vectorbasedforward) 5
r -t 26.378025000 -s 5 -d 4 -p vectorbasedforward -e 500 -c 2 -a 0 -i 5 -k MAC -R 100.000000
v -t 26.378025000 -e sim_annotation 26.378025000 107 node 4 receive vectorbasedforward 5 from 5
+ -t 26.965797558 -s 5 -d 0 -p vectorbasedforward -e 500 -c 2 -a 0 -i 5 -k MAC 
- -t 26.965797558 -s 5 -d 0 -p vectorbasedforward -e 500 -c 2 -a 0 -i 5 -k MAC
h -t 26.965797558 -s 5 -d 0 -p vectorbasedforward -e 500 -c 2 -a 0 -i 5 -k MAC -R 100.000000
v -t 26.965797558 -e sim_annotation 26.965797558 108 node 5 sendout packet (vectorbasedforward) 5
r -t 27.005433777 -s 4 -d 0 -p vectorbasedforward -e 500 -c 2 -a 0 -i 5 -k MAC -R 100.000000
v -t 27.005433777 -e sim_annotation 27.005433777 109 node 0 receive vectorbasedforward 5 from 4
r -t 27.013797558 -s 6 -d 0 -p vectorbasedforward -e 500 -c 2 -a 0 -i 5 -k MAC -R 100.000000
v -t 27.013797558 -e sim_annotation 27.013797558 110 node 0 receive vectorbasedforward 5 from 6
d -t 27.013822558 -s 6 -d 0 -p vectorbasedforward -e 500 -c 2 -a 0 -i 5 -k RTR
v -t 27.013822558 -e sim_annotation 27.013822558 111 node 6 drop packet(vectorbasedforward) 5
r -t 27.027680228 -s 3 -d 0 -p vectorbasedforward -e 500 -c 2 -a 0 -i 5 -k MAC -R 100.000000
v -t 27.027680228 -e sim_annotation 27.027680228 112 node 0 receive vectorbasedforward 5 from 3
+ -t 27.833690280 -s 3 -d 0 -p vectorbasedforward -e 500 -c 2 -a 0 -i 5 -k MAC 
- -t 27.833690280 -s 3 -d 0 -p vectorbasedforward -e 500 -c 2 -a 0 -i 5 -k MAC
h -t 27.833690280 -s 3 -d 0 -p vectorbasedforward -e 500 -c 2 -a 0 -i 5 -k MAC -R 100.000000
v -t 27.833690280 -e sim_annotation 27.833690280 113 node 3 sendout packet (vectorbasedforward) 5
r -t 27.895056938 -s 2 -d 0 -p vectorbasedforward -e 500 -c 2 -a 0 -i 5 -k MAC -R 100.000000
v -t 27.895056938 -e sim_annotation 27.895056938 114 node 0 receive vectorbasedforward 5 from 2
d -t 27.895572951 -s 5 -d 0 -p vectorbasedforward -e 500 -c 2 -a 0 -i 5 -k MAC
v -t 27.895572951 -e sim_annotation 27.895572951 115 node 5 drop packet(vectorbasedforward) 5
+ -t 28.153082549 -s 4 -d 0 -p vectorbasedforward -e 500 -c 2 -a 0 -i 5 -k MAC 
- -t 28.153082549 -s 4 -d 0 -p vectorbasedforward -e 500 -c 2 -a 0 -i 5 -k MAC
h -t 28.153082549 -s 4 -d 0 -p vectorbasedforward -e 500 -c 2 -a 0 -i 5 -k MAC -R 100.000000
v -t 28.153082549 -e sim_annotation 28.153082549 116 node 4 sendout packet (vectorbasedforward) 5
r -t 28.192718769 -s 5 -d 0 -p vectorbasedforward -e 500 -c 2 -a 0 -i 5 -k MAC -R 100.000000
v -t 28.192718769 -e sim_annotation 28.192718769 117 node 0 receive vectorbasedforward 5 from 5
d -t 28.192743769 -s 5 -d 0 -p vectorbasedforward -e 500 -c 2 -a 0 -i 5 -k RTR
v -t 28.192743769 -e sim_annotation 28.192743769 118 node 5 drop packet(vectorbasedforward) 5
r -t 28.214415883 -s 1 -d 0 -p vectorbasedforward -e 500 -c 2 -a 0 -i 5 -k MAC -R 100.000000
v -t 28.214415883 -e sim_annotation 28.214415883 119 node 0 receive vectorbasedforward 5 from 1
+ -t 28.634031537 -s 2 -d 0 -p vectorbasedforward -e 500 -c 2 -a 0 -i 5 -k MAC 
- -t 28.634031537 -s 2 -d 0 -p vectorbasedforward -e 500 -c 2 -a 0 -i 5 -k MAC
h -t 28.634031537 -s 2 -d 0 -p vectorbasedforward -e 500 -c 2 -a 0 -i 5 -k MAC -R 100.000000
v -t 28.634031537 -e sim_annotation 28.634031537 120 node 2 sendout packet (vectorbasedforward) 5
r -t 28.670798690 -s 0 -d 0 -p vectorbasedforward -e 500 -c 2 -a 0 -i 5 -k MAC -R 100.000000
v -t 28.670798690 -e sim_annotation 28.670798690 121 node 0 receive vectorbasedforward 5 from 0
r -t 28.695398194 -s 3 -d 0 -p vectorbasedforward -e 500 -c 2 -a 0 -i 5 -k MAC -R 100.000000
v -t 28.695398194 -e sim_annotation 28.695398194 122 node 0 receive vectorbasedforward 5 from 3
d -t 28.695423194 -s 3 -d 0 -p vectorbasedforward -e 500 -c 2 -a 0 -i 5 -k RTR
v -t 28.695423194 -e sim_annotation 28.695423194 123 node 3 drop packet(vectorbasedforward) 5
+ -t 29.012562258 -s 1 -d 0 -p vectorbasedforward -e 500 -c 2 -a 0 -i 5 -k MAC 
- -t 29.012562258 -s 1 -d 0 -p vectorbasedforward -e 500 -c 2 -a 0 -i 5 -k MAC
h -t 29.012562258 -s 1 -d 0 -p vectorbasedforward -e 500 -c 2 -a 0 -i 5 -k MAC -R 100.000000
v -t 29.012562258 -e sim_annotation 29.012562258 124 node 1 sendout packet (vectorbasedforward) 5
r -t 29.073895591 -s 4 -d 0 -p vectorbasedforward -e 500 -c 2 -a 0 -i 5 -k MAC -R 100.000000
v -t 29.073895591 -e sim_annotation 29.073895591 125 node 0 receive vectorbasedforward 5 from 4
d -t 29.073920591 -s 4 -d 0 -p vectorbasedforward -e 500 -c 2 -a 0 -i 5 -k RTR
v -t 29.073920591 -e sim_annotation 29.073920591 126 node 4 drop packet(vectorbasedforward) 5
r -t 29.079303712 -s 0 -d 0 -p vectorbasedforward -e 500 -c 2 -a 0 -i 5 -k MAC -R 100.000000
v -t 29.079303712 -e sim_annotation 29.079303712 127 node 0 receive vectorbasedforward 5 from 0
d -t 29.079328712 -s 0 -d 0 -p vectorbasedforward -e 500 -c 2 -a 0 -i 5 -k RTR
v -t 29.079328712 -e sim_annotation 29.079328712 128 node 0 drop packet(vectorbasedforward) 5
+ -t 31.330025000 -s 6 -d 4 -p vectorbasedforward -e 500 -c 2 -a 0 -i 6 -k MAC 
- -t 31.330025000 -s 6 -d 4 -p vectorbasedforward -e 500 -c 2 -a 0 -i 6 -k MAC
h -t 31.330025000 -s 6 -d 4 -p vectorbasedforward -e 500 -c 2 -a 0 -i 6 -k MAC -R 100.000000
v -t 31.330025000 -e sim_annotation 31.330025000 129 node 6 sendout packet (vectorbasedforward) 6
r -t 31.378025000 -s 5 -d 4 -p vectorbasedforward -e 500 -c 2 -a 0 -i 6 -k MAC -R 100.000000
v -t 31.378025000 -e sim_annotation 31.378025000 130 node 4 receive vectorbasedforward 6 from 5