n -t * -s 0  -x 0 -y 0 -Z 0 -z 2  -v circle -c green
n -t * -s 1  -x 0 -y 0 -Z 0 -z 2  -v circle -c green
n -t * -s 2  -x 0 -y 0 -Z 0 -z 2  -v circle -c green
n -t * -s 3  -x 0 -y 0 -Z 0 -z 2  -v circle -c green
n -t * -s 4  -x 0 -y 0 -Z 0 -z 2  -v circle -c green
n -t * -s 5  -x 0 -y 0 -Z 0 -z 2  -v circle -c green
n -t * -s 6  -x 0 -y 0 -Z 0 -z 2  -v circle -c green
n -t * -s 7  -x 0 -y 0 -Z 0 -z 2  -v circle -c green
V -t * -v 1.0a5 -a 0
W -t * -x 300 -y 300
A -t * -n 1 -p 0 -o 0xffffffff -c 31 -a 1
A -t * -h 1 -m 2147483647 -s 0
n -t 5.000010 -s 0 -x 243.361614 -y 10.424051 -z 3.951357 -U -1.129990 -V 1.270210 -T 0.000000
n -t 5.000010 -s 1 -x 48.075813 -y 5.630478 -z 7.912648 -U 2.297223 -V 3.975427 -T 0.000000
n -t 5.000010 -s 2 -x 58.037422 -y 69.571309 -z 2.973571 -U 1.486280 -V 2.309642 -T 0.000000
n -t 5.000010 -s 3 -x 281.268558 -y 289.240128 -z 6.448425 -U -1.447501 -V -1.584152 -T 0.000000
n -t 5.000010 -s 4 -x 134.635633 -y 281.435448 -z 4.734336 -U 0.744678 -V -2.076709 -T 0.000000
n -t 5.000010 -s 5 -x 78.555241 -y 126.460298 -z 0.181561 -U 3.105350 -V 3.026019 -T 0.000000
n -t 5.000010 -s 6 -x 270.005967 -y 100.487952 -z 4.975126 -U -1.334818 -V 0.810498 -T 0.000000
n -t 5.000010 -s 7 -x 251.893385 -y 233.580116 -z 1.560600 -U -1.094615 -V -0.193132 -T 0.000000
n -t 5.010010 -s 0 -x 243.350314 -y 10.436753 -z 3.951155 -U -1.129990 -V 1.270210 -T 0.000000
n -t 5.010010 -s 1 -x 48.098785 -y 5.670233 -z 7.912604 -U 2.297223 -V 3.975427 -T 0.000000
n -t 5.010010 -s 2 -x 58.052285 -y 69.594405 -z 2.973263 -U 1.486280 -V 2.309642 -T 0.000000
n -t 5.010010 -s 3 -x 281.254083 -y 289.224286 -z 6.448760 -U -1.447501 -V -1.584152 -T 0.000000
n -t 5.010010 -s 4 -x 134.643080 -y 281.414681 -z 4.734591 -U 0.744678 -V -2.076709 -T 0.000000
n -t 5.010010 -s 5 -x 78.586295 -y 126.490559 -z 0.183001 -U 3.105350 -V 3.026019 -T 0.000000
n -t 5.010010 -s 6 -x 269.992619 -y 100.496057 -z 4.975305 -U -1.334818 -V 0.810498 -T 0.000000
n -t 5.010010 -s 7 -x 251.882438 -y 233.578185 -z 1.560797 -U -1.094615 -V -0.193132 -T 0.000000
n -t 5.020010 -s 0 -x 243.339014 -y 10.449455 -z 3.950954 -U -1.129990 -V 1.270210 -T 0.000000
n -t 5.020010 -s 1 -x 48.121758 -y 5.709987 -z 7.912561 -U 2.297223 -V 3.975427 -T 0.000000
n -t 5.020010 -s 2 -x 58.067147 -y 69.617502 -z 2.972955 -U 1.486280 -V 2.309642 -T 0.000000
n -t 5.020010 -s 3 -x 281.239608 -y 289.208445 -z 6.449095 -U -1.447501 -V -1.584152 -T 0.000000
n -t 5.020010 -s 4 -x 134.650527 -y 281.393914 -z 4.734846 -U 0.744678 -V -2.076709 -T 0.000000
n -t 5.020010 -s 5 -x 78.617348 -y 126.520819 -z 0.184442 -U 3.105350 -V 3.026019 -T 0.000000
n -t 5.020010 -s 6 -x 269.979271 -y 100.504162 -z 4.975484 -U -1.334818 -V 0.810498 -T 0.000000
n -t 5.020010 -s 7 -x 251.871492 -y 233.576254 -z 1.560993 -U -1.094615 -V -0.193132 -T 0.000000
n -t 5.030010 -s 0 -x 243.327714 -y 10.462158 -z 3.950753 -U -1.129990 -V 1.270210 -T 0.000000
n -t 5.030010 -s 1 -x 48.144730 -y 5.749741 -z 7.912518 -U 2.297223 -V 3.975427 -T 0.000000
n -t 5.030010 -s 2 -x 58.082010 -y 69.640598 -z 2.972647 -U 1.486280 -V 2.309642 -T 0.000000
n -t 5.030010 -s 3 -x 281.225133 -y 289.192603 -z 6.449430 -U -1.447501 -V -1.584152 -T 0.000000
n -t 5.030010 -s 4 -x 134.657974 -y 281.373147 -z 4.735101 -U 0.744678 -V -2.076709 -T 0.000000
n -t 5.030010 -s 5 -x 78.648402 -y 126.551079 -z 0.185883 -U 3.105350 -V 3.026019 -T 0.000000
n -t 5.030010 -s 6 -x 269.965922 -y 100.512267 -z 4.975663 -U -1.334818 -V 0.810498 -T 0.000000
n -t 5.030010 -s 7 -x 251.860546 -y 233.574323 -z 1.561190 -U -1.094615 -V -0.193132 -T 0.000000
n -t 5.040010 -s 0 -x 243.316414 -y 10.474860 -z 3.950551 -U -1.129990 -V 1.270210 -T 0.000000
n -t 5.040010 -s 1 -x 48.167702 -y 5.789496 -z 7.912475 -U 2.297223 -V 3.975427 -T 0.000000
n -t 5.040010 -s 2 -x 58.096873 -y 69.663694 -z 2.972339 -U 1.486280 -V 2.309642 -T 0.000000
n -t 5.040010 -s 3 -x 281.210658 -y 289.176762 -z 6.449765 -U -1.447501 -V -1.584152 -T 0.000000
n -t 5.040010 -s 4 -x 134.665420 -y 281.352380 -z 4.735356 -U 0.744678 -V -2.076709 -T 0.000000
n -t 5.040010 -s 5 -x 78.679455 -y 126.581339 -z 0.187323 -U 3.105350 -V 3.026019 -T 0.000000
n -t 5.040010 -s 6 -x 269.952574 -y 100.520372 -z 4.975842 -U -1.334818 -V 0.810498 -T 0.000000
n -t 5.040010 -s 7 -x 251.849600 -y 233.572391 -z 1.561387 -U -1.094615 -V -0.193132 -T 0.000000
n -t 5.050010 -s 0 -x 243.305114 -y 10.487562 -z 3.950350 -U -1.129990 -V 1.270210 -T 0.000000
n -t 5.050010 -s 1 -x 48.190674 -y 5.829250 -z 7.912431 -U 2.297223 -V 3.975427 -T 0.000000
n -t 5.050010 -s 2 -x 58.111736 -y 69.686791 -z 2.972031 -U 1.486280 -V 2.309642 -T 0.000000
n -t 5.050010 -s 3 -x 281.196183 -y 289.160920 -z 6.450100 -U -1.447501 -V -1.584152 -T 0.000000
n -t 5.050010 -s 4 -x 134.672867 -y 281.331612 -z 4.735611 -U 0.744678 -V -2.076709 -T 0.000000
n -t 5.050010 -s 5 -x 78.710509 -y 126.611599 -z 0.188764 -U 3.105350 -V 3.026019 -T 0.000000
n -t 5.050010 -s 6 -x 269.939226 -y 100.528477 -z 4.976021 -U -1.334818 -V 0.810498 -T 0.000000
n -t 5.050010 -s 7 -x 251.838654 -y 233.570460 -z 1.561583 -U -1.094615 -V -0.193132 -T 0.000000
n -t 5.060010 -s 0 -x 243.293815 -y 10.500264 -z 3.950148 -U -1.129990 -V 1.270210 -T 0.000000
n -t 5.060010 -s 1 -x 48.213647 -y 5.869004 -z 7.912388 -U 2.297223 -V 3.975427 -T 0.000000
n -t 5.060010 -s 2 -x 58.126599 -y 69.709887 -z 2.971723 -U 1.486280 -V 2.309642 -T 0.000000
n -t 5.060010 -s 3 -x 281.181708 -y 289.145079 -z 6.450436 -U -1.447501 -V -1.584152 -T 0.000000
n -t 5.060010 -s 4 -x 134.680314 -y 281.310845 -z 4.735865 -U 0.744678 -V -2.076709 -T 0.000000
n -t 5.060010 -s 5 -x 78.741562 -y 126.641860 -z 0.190205 -U 3.105350 -V 3.026019 -T 0.000000
n -t 5.060010 -s 6 -x 269.925878 -y 100.536582 -z 4.976200 -U -1.334818 -V 0.810498 -T 0.000000
n -t 5.060010 -s 7 -x 251.827708 -y 233.568529 -z 1.561780 -U -1.094615 -V -0.193132 -T 0.000000
n -t 5.070010 -s 0 -x 243.282515 -y 10.512966 -z 3.949947 -U -1.129990 -V 1.270210 -T 0.000000
n -t 5.070010 -s 1 -x 48.236619 -y 5.908758 -z 7.912345 -U 2.297223 -V 3.975427 -T 0.000000
n -t 5.070010 -s 2 -x 58.141461 -y 69.732984 -z 2.971415 -U 1.486280 -V 2.309642 -T 0.000000
n -t 5.070010 -s 3 -x 281.167233 -y 289.129237 -z 6.450771 -U -1.447501 -V -1.584152 -T 0.000000
n -t 5.070010 -s 4 -x 134.687761 -y 281.290078 -z 4.736120 -U 0.744678 -V -2.076709 -T 0.000000
n -t 5.070010 -s 5 -x 78.772616 -y 126.672120 -z 0.191646 -U 3.105350 -V 3.026019 -T 0.000000
n -t 5.070010 -s 6 -x 269.912530 -y 100.544687 -z 4.976379 -U -1.334818 -V 0.810498 -T 0.000000
n -t 5.070010 -s 7 -x 251.816761 -y 233.566597 -z 1.561976 -U -1.094615 -V -0.193132 -T 0.000000
n -t 5.080010 -s 0 -x 243.271215 -y 10.525668 -z 3.949746 -U -1.129990 -V 1.270210 -T 0.000000
n -t 5.080010 -s 1 -x 48.259591 -y 5.948513 -z 7.912301 -U 2.297223 -V 3.975427 -T 0.000000
n -t 5.080010 -s 2 -x 58.156324 -y 69.756080 -z 2.971107 -U 1.486280 -V 2.309642 -T 0.000000
n -t 5.080010 -s 3 -x 281.152758 -y 289.113396 -z 6.451106 -U -1.447501 -V -1.584152 -T 0.000000
n -t 5.080010 -s 4 -x 134.695207 -y 281.269311 -z 4.736375 -U 0.744678 -V -2.076709 -T 0.000000
n -t 5.080010 -s 5 -x 78.803669 -y 126.702380 -z 0.193086 -U 3.105350 -V 3.026019 -T 0.000000
n -t 5.080010 -s 6 -x 269.899181 -y 100.552792 -z 4.976558 -U -1.334818 -V 0.810498 -T 0.000000
n -t 5.080010 -s 7 -x 251.805815 -y 233.564666 -z 1.562173 -U -1.094615 -V -0.193132 -T 0.000000
n -t 5.090010 -s 0 -x 243.259915 -y 10.538370 -z 3.949544 -U -1.129990 -V 1.270210 -T 0.000000
n -t 5.090010 -s 1 -x 48.282563 -y 5.988267 -z 7.912258 -U 2.297223 -V 3.975427 -T 0.000000
n -t 5.090010 -s 2 -x 58.171187 -y 69.779176 -z 2.970799 -U 1.486280 -V 2.309642 -T 0.000000
n -t 5.090010 -s 3 -x 281.138283 -y 289.097554 -z 6.451441 -U -1.447501 -V -1.584152 -T 0.000000
n -t 5.090010 -s 4 -x 134.702654 -y 281.248544 -z 4.736630 -U 0.744678 -V -2.076709 -T 0.000000
n -t 5.090010 -s 5 -x 78.834723 -y 126.732640 -z 0.194527 -U 3.105350 -V 3.026019 -T 0.000000
n -t 5.090010 -s 6 -x 269.885833 -y 100.560897 -z 4.976737 -U -1.334818 -V 0.810498 -T 0.000000
n -t 5.090010 -s 7 -x 251.794869 -y 233.562735 -z 1.562369 -U -1.094615 -V -0.193132 -T 0.000000
n -t 5.100010 -s 0 -x 243.248615 -y 10.551072 -z 3.949343 -U -1.129990 -V 1.270210 -T 0.000000
n -t 5.100010 -s 1 -x 48.305535 -y 6.028021 -z 7.912215 -U 2.297223 -V 3.975427 -T 0.000000
n -t 5.100010 -s 2 -x 58.186050 -y 69.802273 -z 2.970491 -U 1.486280 -V 2.309642 -T 0.000000
n -t 5.100010 -s 3 -x 281.123808 -y 289.081713 -z 6.451776 -U -1.447501 -V -1.584152 -T 0.000000
n -t 5.100010 -s 4 -x 134.710101 -y 281.227777 -z 4.736885 -U 0.744678 -V -2.076709 -T 0.000000
n -t 5.100010 -s 5 -x 78.865776 -y 126.762900 -z 0.195968 -U 3.105350 -V 3.026019 -T 0.000000
n -t 5.100010 -s 6 -x 269.872485 -y 100.569002 -z 4.976916 -U -1.334818 -V 0.810498 -T 0.000000
n -t 5.100010 -s 7 -x 251.783923 -y 233.560803 -z 1.562566 -U -1.094615 -V -0.193132 -T 0.000000
n -t 5.110010 -s 0 -x 243.237315 -y 10.563774 -z 3.949141 -U -1.129990 -V 1.270210 -T 0.000000
n -t 5.110010 -s 1 -x 48.328508 -y 6.067775 -z 7.912172 -U 2.297223 -V 3.975427 -T 0.000000
n -t 5.110010 -s 2 -x 58.200913 -y 69.825369 -z 2.970183 -U 1.486280 -V 2.309642 -T 0.000000
n -t 5.110010 -s 3 -x 281.109333 -y 289.065871 -z 6.452111 -U -1.447501 -V -1.584152 -T 0.000000
n -t 5.110010 -s 4 -x 134.717548 -y 281.207010 -z 4.737140 -U 0.744678 -V -2.076709 -T 0.000000
n -t 5.110010 -s 5 -x 78.896830 -y 126.793160 -z 0.197408 -U 3.105350 -V 3.026019 -T 0.000000
n -t 5.110010 -s 6 -x 269.859137 -y 100.577107 -z 4.977095 -U -1.334818 -V 0.810498 -T 0.000000
n -t 5.110010 -s 7 -x 251.772977 -y 233.558872 -z 1.562762 -U -1.094615 -V -0.193132 -T 0.000000
n -t 5.120010 -s 0 -x 243.226015 -y 10.576476 -z 3.948940 -U -1.129990 -V 1.270210 -T 0.000000
n -t 5.120010 -s 1 -x 48.351480 -y 6.107530 -z 7.912128 -U 2.297223 -V 3.975427 -T 0.000000
n -t 5.120010 -s 2 -x 58.215775 -y 69.848466 -z 2.969875 -U 1.486280 -V 2.309642 -T 0.000000
n -t 5.120010 -s 3 -x 281.094858 -y 289.050030 -z 6.452446 -U -1.447501 -V -1.584152 -T 0.000000
n -t 5.120010 -s 4 -x 134.724995 -y 281.186243 -z 4.737395 -U 0.744678 -V -2.076709 -T 0.000000
n -t 5.120010 -s 5 -x 78.927883 -y 126.823421 -z 0.198849 -U 3.105350 -V 3.026019 -T 0.000000
n -t 5.120010 -s 6 -x 269.845789 -y 100.585212 -z 4.977274 -U -1.334818 -V 0.810498 -T 0.000000
n -t 5.120010 -s 7 -x 251.762031 -y 233.556941 -z 1.562959 -U -1.094615 -V -0.193132 -T 0.000000
n -t 5.130010 -s 0 -x 243.214715 -y 10.589179 -z 3.948739 -U -1.129990 -V 1.270210 -T 0.000000
n -t 5.130010 -s 1 -x 48.374452 -y 6.147284 -z 7.912085 -U 2.297223 -V 3.975427 -T 0.000000
n -t 5.130010 -s 2 -x 58.230638 -y 69.871562 -z 2.969567 -U 1.486280 -V 2.309642 -T 0.000000
n -t 5.130010 -s 3 -x 281.080383 -y 289.034188 -z 6.452781 -U -1.447501 -V -1.584152 -T 0.000000
n -t 5.130010 -s 4 -x 134.732441 -y 281.165476 -z 4.737650 -U 0.744678 -V -2.076709 -T 0.000000
n -t 5.130010 -s 5 -x 78.958937 -y 126.853681 -z 0.200290 -U 3.105350 -V 3.026019 -T 0.000000
n -t 5.130010 -s 6 -x 269.832441 -y 100.593317 -z 4.977453 -U -1.334818 -V 0.810498 -T 0.000000
n -t 5.130010 -s 7 -x 251.751085 -y 233.555009 -z 1.563155 -U -1.094615 -V -0.193132 -T 0.000000
n -t 5.140010 -s 0 -x 243.203415 -y 10.601881 -z 3.948537 -U -1.129990 -V 1.270210 -T 0.000000
n -t 5.140010 -s 1 -x 48.397424 -y 6.187038 -z 7.912042 -U 2.297223 -V 3.975427 -T 0.000000
n -t 5.140010 -s 2 -x 58.245501 -y 69.894659 -z 2.969259 -U 1.486280 -V 2.309642 -T 0.000000
n -t 5.140010 -s 3 -x 281.065908 -y 289.018347 -z 6.453116 -U -1.447501 -V -1.584152 -T 0.000000
n -t 5.140010 -s 4 -x 134.739888 -y 281.144709 -z 4.737904 -U 0.744678 -V -2.076709 -T 0.000000
n -t 5.140010 -s 5 -x 78.989990 -y 126.883941 -z 0.201731 -U 3.105350 -V 3.026019 -T 0.000000
n -t 5.140010 -s 6 -x 269.819092 -y 100.601422 -z 4.977632 -U -1.334818 -V 0.810498 -T 0.000000
n -t 5.140010 -s 7 -x 251.740138 -y 233.553078 -z 1.563352 -U -1.094615 -V -0.193132 -T 0.000000
n -t 5.150010 -s 0 -x 243.192115 -y 10.614583 -z 3.948336 -U -1.129990 -V 1.270210 -T 0.000000
n -t 5.150010 -s 1 -x 48.420397 -y 6.226793 -z 7.911998 -U 2.297223 -V 3.975427 -T 0.000000
n -t 5.150010 -s 2 -x 58.260364 -y 69.917755 -z 2.968950 -U 1.486280 -V 2.309642 -T 0.000000
n -t 5.150010 -s 3 -x 281.051433 -y 289.002505 -z 6.453452 -U -1.447501 -V -1.584152 -T 0.000000
n -t 5.150010 -s 4 -x 134.747335 -y 281.123942 -z 4.738159 -U 0.744678 -V -2.076709 -T 0.000000
n -t 5.150010 -s 5 -x 79.021044 -y 126.914201 -z 0.203171 -U 3.105350 -V 3.026019 -T 0.000000
n -t 5.150010 -s 6 -x 269.805744 -y 100.609527 -z 4.977811 -U -1.334818 -V 0.810498 -T 0.000000
n -t 5.150010 -s 7 -x 251.729192 -y 233.551147 -z 1.563549 -U -1.094615 -V -0.193132 -T 0.000000
n -t 5.160010 -s 0 -x 243.180816 -y 10.627285 -z 3.948135 -U -1.129990 -V 1.270210 -T 0.000000
n -t 5.160010 -s 1 -x 48.443369 -y 6.266547 -z 7.911955 -U 2.297223 -V 3.975427 -T 0.000000
n -t 5.160010 -s 2 -x 58.275227 -y 69.940851 -z 2.968642 -U 1.486280 -V 2.309642 -T 0.000000
n -t 5.160010 -s 3 -x 281.036958 -y 288.986664 -z 6.453787 -U -1.447501 -V -1.584152 -T 0.000000
n -t 5.160010 -s 4 -x 134.754782 -y 281.103175 -z 4.738414 -U 0.744678 -V -2.076709 -T 0.000000
n -t 5.160010 -s 5 -x 79.052097 -y 126.944461 -z 0.204612 -U 3.105350 -V 3.026019 -T 0.000000
n -t 5.160010 -s 6 -x 269.792396 -y 100.617632 -z 4.977990 -U -1.334818 -V 0.810498 -T 0.000000
n -t 5.160010 -s 7 -x 251.718246 -y 233.549215 -z 1.563745 -U -1.094615 -V -0.193132 -T 0.000000
n -t 5.170010 -s 0 -x 243.169516 -y 10.639987 -z 3.947933 -U -1.129990 -V 1.270210 -T 0.000000
n -t 5.170010 -s 1 -x 48.466341 -y 6.306301 -z 7.911912 -U 2.297223 -V 3.975427 -T 0.000000
n -t 5.170010 -s 2 -x 58.290090 -y 69.963948 -z 2.968334 -U 1.486280 -V 2.309642 -T 0.000000
n -t 5.170010 -s 3 -x 281.022483 -y 288.970822 -z 6.454122 -U -1.447501 -V -1.584152 -T 0.000000
n -t 5.170010 -s 4 -x 134.762229 -y 281.082407 -z 4.738669 -U 0.744678 -V -2.076709 -T 0.000000
n -t 5.170010 -s 5 -x 79.083151 -y 126.974722 -z 0.206053 -U 3.105350 -V 3.026019 -T 0.000000
n -t 5.170010 -s 6 -x 269.779048 -y 100.625737 -z 4.978169 -U -1.334818 -V 0.810498 -T 0.000000
n -t 5.170010 -s 7 -x 251.707300 -y 233.547284 -z 1.563942 -U -1.094615 -V -0.193132 -T 0.000000
n -t 5.180010 -s 0 -x 243.158216 -y 10.652689 -z 3.947732 -U -1.129990 -V 1.270210 -T 0.000000
n -t 5.180010 -s 1 -x 48.489313 -y 6.346055 -z 7.911869 -U 2.297223 -V 3.975427 -T 0.000000
n -t 5.180010 -s 2 -x 58.304952 -y 69.987044 -z 2.968026 -U 1.486280 -V 2.309642 -T 0.000000
n -t 5.180010 -s 3 -x 281.008008 -y 288.954981 -z 6.454457 -U -1.447501 -V -1.584152 -T 0.000000
n -t 5.180010 -s 4 -x 134.769675 -y 281.061640 -z 4.738924 -U 0.744678 -V -2.076709 -T 0.000000
n -t 5.180010 -s 5 -x 79.114204 -y 127.004982 -z 0.207493 -U 3.105350 -V 3.026019 -T 0.000000
n -t 5.180010 -s 6 -x 269.765700 -y 100.633842 -z 4.978349 -U -1.334818 -V 0.810498 -T 0.000000
n -t 5.180010 -s 7 -x 251.696354 -y 233.545353 -z 1.564138 -U -1.094615 -V -0.193132 -T 0.000000
n -t 5.190010 -s 0 -x 243.146916 -y 10.665391 -z 3.947530 -U -1.129990 -V 1.270210 -T 0.000000
n -t 5.190010 -s 1 -x 48.512286 -y 6.385810 -z 7.911825 -U 2.297223 -V 3.975427 -T 0.000000
n -t 5.190010 -s 2 -x 58.319815 -y 70.010141 -z 2.967718 -U 1.486280 -V 2.309642 -T 0.000000
n -t 5.190010 -s 3 -x 280.993533 -y 288.939139 -z 6.454792 -U -1.447501 -V -1.584152 -T 0.000000
n -t 5.190010 -s 4 -x 134.777122 -y 281.040873 -z 4.739179 -U 0.744678 -V -2.076709 -T 0.000000
n -t 5.190010 -s 5 -x 79.145258 -y 127.035242 -z 0.208934 -U 3.105350 -V 3.026019 -T 0.000000
n -t 5.190010 -s 6 -x 269.752351 -y 100.641947 -z 4.978528 -U -1.334818 -V 0.810498 -T 0.000000
n -t 5.190010 -s 7 -x 251.685408 -y 233.543421 -z 1.564335 -U -1.094615 -V -0.193132 -T 0.000000
n -t 5.200010 -s 0 -x 243.135616 -y 10.678093 -z 3.947329 -U -1.129990 -V 1.270210 -T 0.000000
n -t 5.200010 -s 1 -x 48.535258 -y 6.425564 -z 7.911782 -U 2.297223 -V 3.975427 -T 0.000000
n -t 5.200010 -s 2 -x 58.334678 -y 70.033237 -z 2.967410 -U 1.486280 -V 2.309642 -T 0.000000
n -t 5.200010 -s 3 -x 280.979058 -y 288.923298 -z 6.455127 -U -1.447501 -V -1.584152 -T 0.000000
n -t 5.200010 -s 4 -x 134.784569 -y 281.020106 -z 4.739434 -U 0.744678 -V -2.076709 -T 0.000000
n -t 5.200010 -s 5 -x 79.176311 -y 127.065502 -z 0.210375 -U 3.105350 -V 3.026019 -T 0.000000
n -t 5.200010 -s 6 -x 269.739003 -y 100.650052 -z 4.978707 -U -1.334818 -V 0.810498 -T 0.000000
n -t 5.200010 -s 7 -x 251.674461 -y 233.541490 -z 1.564531 -U -1.094615 -V -0.193132 -T 0.000000
n -t 5.210010 -s 0 -x 243.124316 -y 10.690795 -z 3.947128 -U -1.129990 -V 1.270210 -T 0.000000
n -t 5.210010 -s 1 -x 48.558230 -y 6.465318 -z 7.911739 -U 2.297223 -V 3.975427 -T 0.000000
n -t 5.210010 -s 2 -x 58.349541 -y 70.056333 -z 2.967102 -U 1.486280 -V 2.309642 -T 0.000000
n -t 5.210010 -s 3 -x 280.964583 -y 288.907456 -z 6.455462 -U -1.447501 -V -1.584152 -T 0.000000
n -t 5.210010 -s 4 -x 134.792016 -y 280.999339 -z 4.739688 -U 0.744678 -V -2.076709 -T 0.000000
n -t 5.210010 -s 5 -x 79.207365 -y 127.095762 -z 0.211816 -U 3.105350 -V 3.026019 -T 0.000000
n -t 5.210010 -s 6 -x 269.725655 -y 100.658157 -z 4.978886 -U -1.334818 -V 0.810498 -T 0.000000
n -t 5.210010 -s 7 -x 251.663515 -y 233.539559 -z 1.564728 -U -1.094615 -V -0.193132 -T 0.000000
n -t 5.220010 -s 0 -x 243.113016 -y 10.703497 -z 3.946926 -U -1.129990 -V 1.270210 -T 0.000000
n -t 5.220010 -s 1 -x 48.581202 -y 6.505072 -z 7.911695 -U 2.297223 -V 3.975427 -T 0.000000
n -t 5.220010 -s 2 -x 58.364404 -y 70.079430 -z 2.966794 -U 1.486280 -V 2.309642 -T 0.000000
n -t 5.220010 -s 3 -x 280.950108 -y 288.891614 -z 6.455797 -U -1.447501 -V -1.584152 -T 0.000000
n -t 5.220010 -s 4 -x 134.799462 -y 280.978572 -z 4.739943 -U 0.744678 -V -2.076709 -T 0.000000
n -t 5.220010 -s 5 -x 79.238418 -y 127.126023 -z 0.213256 -U 3.105350 -V 3.026019 -T 0.000000
n -t 5.220010 -s 6 -x 269.712307 -y 100.666262 -z 4.979065 -U -1.334818 -V 0.810498 -T 0.000000
n -t 5.220010 -s 7 -x 251.652569 -y 233.537628 -z 1.564924 -U -1.094615 -V -0.193132 -T 0.000000
n -t 5.230010 -s 0 -x 243.101716 -y 10.716199 -z 3.946725 -U -1.129990 -V 1.270210 -T 0.000000
n -t 5.230010 -s 1 -x 48.604174 -y 6.544827 -z 7.911652 -U 2.297223 -V 3.975427 -T 0.000000
n -t 5.230010 -s 2 -x 58.379266 -y 70.102526 -z 2.966486 -U 1.486280 -V 2.309642 -T 0.000000
n -t 5.230010 -s 3 -x 280.935633 -y 288.875773 -z 6.456132 -U -1.447501 -V -1.584152 -T 0.000000
n -t 5.230010 -s 4 -x 134.806909 -y 280.957805 -z 4.740198 -U 0.744678 -V -2.076709 -T 0.000000
n -t 5.230010 -s 5 -x 79.269472 -y 127.156283 -z 0.214697 -U 3.105350 -V 3.026019 -T 0.000000
n -t 5.230010 -s 6 -x 269.698959 -y 100.674367 -z 4.979244 -U -1.334818 -V 0.810498 -T 0.000000
n -t 5.230010 -s 7 -x 251.641623 -y 233.535696 -z 1.565121 -U -1.094615 -V -0.193132 -T 0.000000
n -t 5.240010 -s 0 -x 243.090416 -y 10.728902 -z 3.946523 -U -1.129990 -V 1.270210 -T 0.000000
n -t 5.240010 -s 1 -x 48.627147 -y 6.584581 -z 7.911609 -U 2.297223 -V 3.975427 -T 0.000000
n -t 5.240010 -s 2 -x 58.394129 -y 70.125623 -z 2.966178 -U 1.486280 -V 2.309642 -T 0.000000
n -t 5.240010 -s 3 -x 280.921158 -y 288.859931 -z 6.456467 -U -1.447501 -V -1.584152 -T 0.000000
n -t 5.240010 -s 4 -x 134.814356 -y 280.937038 -z 4.740453 -U 0.744678 -V -2.076709 -T 0.000000
n -t 5.240010 -s 5 -x 79.300525 -y 127.186543 -z 0.216138 -U 3.105350 -V 3.026019 -T 0.000000
n -t 5.240010 -s 6 -x 269.685611 -y 100.682472 -z 4.979423 -U -1.334818 -V 0.810498 -T 0.000000
n -t 5.240010 -s 7 -x 251.630677 -y 233.533765 -z 1.565317 -U -1.094615 -V -0.193132 -T 0.000000
n -t 5.250010 -s 0 -x 243.079116 -y 10.741604 -z 3.946322 -U -1.129990 -V 1.270210 -T 0.000000
n -t 5.250010 -s 1 -x 48.650119 -y 6.624335 -z 7.911566 -U 2.297223 -V 3.975427 -T 0.000000
n -t 5.250010 -s 2 -x 58.408992 -y 70.148719 -z 2.965870 -U 1.486280 -V 2.309642 -T 0.000000
n -t 5.250010 -s 3 -x 280.906683 -y 288.844090 -z 6.456803 -U -1.447501 -V -1.584152 -T 0.000000
n -t 5.250010 -s 4 -x 134.821803 -y 280.916271 -z 4.740708 -U 0.744678 -V -2.076709 -T 0.000000
n -t 5.250010 -s 5 -x 79.331579 -y 127.216803 -z 0.217578 -U 3.105350 -V 3.026019 -T 0.000000
n -t 5.250010 -s 6 -x 269.672262 -y 100.690577 -z 4.979602 -U -1.334818 -V 0.810498 -T 0.000000
n -t 5.250010 -s 7 -x 251.619731 -y 233.531834 -z 1.565514 -U -1.094615 -V -0.193132 -T 0.000000
n -t 5.260010 -s 0 -x 243.067817 -y 10.754306 -z 3.946121 -U -1.129990 -V 1.270210 -T 0.000000
n -t 5.260010 -s 1 -x 48.673091 -y 6.664090 -z 7.911522 -U 2.297223 -V 3.975427 -T 0.000000
n -t 5.260010 -s 2 -x 58.423855 -y 70.171816 -z 2.965562 -U 1.486280 -V 2.309642 -T 0.000000
n -t 5.260010 -s 3 -x 280.892208 -y 288.828248 -z 6.457138 -U -1.447501 -V -1.584152 -T 0.000000
n -t 5.260010 -s 4 -x 134.829250 -y 280.895504 -z 4.740963 -U 0.744678 -V -2.076709 -T 0.000000
n -t 5.260010 -s 5 -x 79.362632 -y 127.247063 -z 0.219019 -U 3.105350 -V 3.026019 -T 0.000000
n -t 5.260010 -s 6 -x 269.658914 -y 100.698682 -z 4.979781 -U -1.334818 -V 0.810498 -T 0.000000
n -t 5.260010 -s 7 -x 251.608785 -y 233.529902 -z 1.565711 -U -1.094615 -V -0.193132 -T 0.000000
n -t 5.270010 -s 0 -x 243.056517 -y 10.767008 -z 3.945919 -U -1.129990 -V 1.270210 -T 0.000000
n -t 5.270010 -s 1 -x 48.696063 -y 6.703844 -z 7.911479 -U 2.297223 -V 3.975427 -T 0.000000
n -t 5.270010 -s 2 -x 58.438718 -y 70.194912 -z 2.965254 -U 1.486280 -V 2.309642 -T 0.000000
n -t 5.270010 -s 3 -x 280.877733 -y 288.812407 -z 6.457473 -U -1.447501 -V -1.584152 -T 0.000000
n -t 5.270010 -s 4 -x 134.836696 -y 280.874737 -z 4.741218 -U 0.744678 -V -2.076709 -T 0.000000
n -t 5.270010 -s 5 -x 79.393686 -y 127.277323 -z 0.220460 -U 3.105350 -V 3.026019 -T 0.000000
n -t 5.270010 -s 6 -x 269.645566 -y 100.706787 -z 4.979960 -U -1.334818 -V 0.810498 -T 0.000000
n -t 5.270010 -s 7 -x 251.597838 -y 233.527971 -z 1.565907 -U -1.094615 -V -0.193132 -T 0.000000
n -t 5.280010 -s 0 -x 243.045217 -y 10.779710 -z 3.945718 -U -1.129990 -V 1.270210 -T 0.000000
n -t 5.280010 -s 1 -x 48.719036 -y 6.743598 -z 7.911436 -U 2.297223 -V 3.975427 -T 0.000000
n -t 5.280010 -s 2 -x 58.453580 -y 70.218008 -z 2.964946 -U 1.486280 -V 2.309642 -T 0.000000
n -t 5.280010 -s 3 -x 280.863258 -y 288.796565 -z 6.457808 -U -1.447501 -V -1.584152 -T 0.000000
n -t 5.280010 -s 4 -x 134.844143 -y 280.853970 -z 4.741472 -U 0.744678 -V -2.076709 -T 0.000000
n -t 5.280010 -s 5 -x 79.424739 -y 127.307584 -z 0.221901 -U 3.105350 -V 3.026019 -T 0.000000
n -t 5.280010 -s 6 -x 269.632218 -y 100.714892 -z 4.980139 -U -1.334818 -V 0.810498 -T 0.000000
n -t 5.280010 -s 7 -x 251.586892 -y 233.526040 -z 1.566104 -U -1.094615 -V -0.193132 -T 0.000000
n -t 5.290010 -s 0 -x 243.033917 -y 10.792412 -z 3.945517 -U -1.129990 -V 1.270210 -T 0.000000
n -t 5.290010 -s 1 -x 48.742008 -y 6.783352 -z 7.911392 -U 2.297223 -V 3.975427 -T 0.000000
n -t 5.290010 -s 2 -x 58.468443 -y 70.241105 -z 2.964638 -U 1.486280 -V 2.309642 -T 0.000000
n -t 5.290010 -s 3 -x 280.848783 -y 288.780724 -z 6.458143 -U -1.447501 -V -1.584152 -T 0.000000
n -t 5.290010 -s 4 -x 134.851590 -y 280.833202 -z 4.741727 -U 0.744678 -V -2.076709 -T 0.000000
n -t 5.290010 -s 5 -x 79.455793 -y 127.337844 -z 0.223341 -U 3.105350 -V 3.026019 -T 0.000000
n -t 5.290010 -s 6 -x 269.618870 -y 100.722997 -z 4.980318 -U -1.334818 -V 0.810498 -T 0.000000
n -t 5.290010 -s 7 -x 251.575946 -y 233.524108 -z 1.566300 -U -1.094615 -V -0.193132 -T 0.000000
n -t 5.300010 -s 0 -x 243.022617 -y 10.805114 -z 3.945315 -U -1.129990 -V 1.270210 -T 0.000000
n -t 5.300010 -s 1 -x 48.764980 -y 6.823107 -z 7.911349 -U 2.297223 -V 3.975427 -T 0.000000
n -t 5.300010 -s 2 -x 58.483306 -y 70.264201 -z 2.964330 -U 1.486280 -V 2.309642 -T 0.000000
n -t 5.300010 -s 3 -x 280.834308 -y 288.764882 -z 6.458478 -U -1.447501 -V -1.584152 -T 0.000000
n -t 5.300010 -s 4 -x 134.859037 -y 280.812435 -z 4.741982 -U 0.744678 -V -2.076709 -T 0.000000
n -t 5.300010 -s 5 -x 79.486846 -y 127.368104 -z 0.224782 -U 3.105350 -V 3.026019 -T 0.000000
n -t 5.300010 -s 6 -x 269.605521 -y 100.731102 -z 4.980497 -U -1.334818 -V 0.810498 -T 0.000000
n -t 5.300010 -s 7 -x 251.565000 -y 233.522177 -z 1.566497 -U -1.094615 -V -0.193132 -T 0.000000
n -t 5.310010 -s 0 -x 243.011317 -y 10.817816 -z 3.945114 -U -1.129990 -V 1.270210 -T 0.000000
n -t 5.310010 -s 1 -x 48.787952 -y 6.862861 -z 7.911306 -U 2.297223 -V 3.975427 -T 0.000000
n -t 5.310010 -s 2 -x 58.498169 -y 70.287298 -z 2.964022 -U 1.486280 -V 2.309642 -T 0.000000
n -t 5.310010 -s 3 -x 280.819833 -y 288.749041 -z 6.458813 -U -1.447501 -V -1.584152 -T 0.000000
n -t 5.310010 -s 4 -x 134.866484 -y 280.791668 -z 4.742237 -U 0.744678 -V -2.076709 -T 0.000000
n -t 5.310010 -s 5 -x 79.517900 -y 127.398364 -z 0.226223 -U 3.105350 -V 3.026019 -T 0.000000
n -t 5.310010 -s 6 -x 269.592173 -y 100.739207 -z 4.980676 -U -1.334818 -V 0.810498 -T 0.000000
n -t 5.310010 -s 7 -x 251.554054 -y 233.520246 -z 1.566693 -U -1.094615 -V -0.193132 -T 0.000000
n -t 5.320010 -s 0 -x 243.000017 -y 10.830518 -z 3.944912 -U -1.129990 -V 1.270210 -T 0.000000
n -t 5.320010 -s 1 -x 48.810925 -y 6.902615 -z 7.911263 -U 2.297223 -V 3.975427 -T 0.000000
n -t 5.320010 -s 2 -x 58.513032 -y 70.310394 -z 2.963713 -U 1.486280 -V 2.309642 -T 0.000000
n -t 5.320010 -s 3 -x 280.805358 -y 288.733199 -z 6.459148 -U -1.447501 -V -1.584152 -T 0.000000
n -t 5.320010 -s 4 -x 134.873930 -y 280.770901 -z 4.742492 -U 0.744678 -V -2.076709 -T 0.000000
n -t 5.320010 -s 5 -x 79.548953 -y 127.428624 -z 0.227663 -U 3.105350 -V 3.026019 -T 0.000000
n -t 5.320010 -s 6 -x 269.578825 -y 100.747312 -z 4.980855 -U -1.334818 -V 0.810498 -T 0.000000
n -t 5.320010 -s 7 -x 251.543108 -y 233.518314 -z 1.566890 -U -1.094615 -V -0.193132 -T 0.000000
n -t 5.330010 -s 0 -x 242.988717 -y 10.843220 -z 3.944711 -U -1.129990 -V 1.270210 -T 0.000000
n -t 5.330010 -s 1 -x 48.833897 -y 6.942369 -z 7.911219 -U 2.297223 -V 3.975427 -T 0.000000
n -t 5.330010 -s 2 -x 58.527894 -y 70.333490 -z 2.963405 -U 1.486280 -V 2.309642 -T 0.000000
n -t 5.330010 -s 3 -x 280.790883 -y 288.717358 -z 6.459483 -U -1.447501 -V -1.584152 -T 0.000000
n -t 5.330010 -s 4 -x 134.881377 -y 280.750134 -z 4.742747 -U 0.744678 -V -2.076709 -T 0.000000
n -t 5.330010 -s 5 -x 79.580007 -y 127.458885 -z 0.229104 -U 3.105350 -V 3.026019 -T 0.000000
n -t 5.330010 -s 6 -x 269.565477 -y 100.755417 -z 4.981034 -U -1.334818 -V 0.810498 -T 0.000000
n -t 5.330010 -s 7 -x 251.532162 -y 233.516383 -z 1.567086 -U -1.094615 -V -0.193132 -T 0.000000
n -t 5.340010 -s 0 -x 242.977417 -y 10.855923 -z 3.944510 -U -1.129990 -V 1.270210 -T 0.000000
n -t 5.340010 -s 1 -x 48.856869 -y 6.982124 -z 7.911176 -U 2.297223 -V 3.975427 -T 0.000000
n -t 5.340010 -s 2 -x 58.542757 -y 70.356587 -z 2.963097 -U 1.486280 -V 2.309642 -T 0.000000
n -t 5.340010 -s 3 -x 280.776408 -y 288.701516 -z 6.459819 -U -1.447501 -V -1.584152 -T 0.000000
n -t 5.340010 -s 4 -x 134.888824 -y 280.729367 -z 4.743002 -U 0.744678 -V -2.076709 -T 0.000000
n -t 5.340010 -s 5 -x 79.611060 -y 127.489145 -z 0.230545 -U 3.105350 -V 3.026019 -T 0.000000
n -t 5.340010 -s 6 -x 269.552129 -y 100.763521 -z 4.981213 -U -1.334818 -V 0.810498 -T 0.000000
n -t 5.340010 -s 7 -x 251.521215 -y 233.514452 -z 1.567283 -U -1.094615 -V -0.193132 -T 0.000000
n -t 5.350010 -s 0 -x 242.966117 -y 10.868625 -z 3.944308 -U -1.129990 -V 1.270210 -T 0.000000
n -t 5.350010 -s 1 -x 48.879841 -y 7.021878 -z 7.911133 -U 2.297223 -V 3.975427 -T 0.000000
n -t 5.350010 -s 2 -x 58.557620 -y 70.379683 -z 2.962789 -U 1.486280 -V 2.309642 -T 0.000000
n -t 5.350010 -s 3 -x 280.761933 -y 288.685675 -z 6.460154 -U -1.447501 -V -1.584152 -T 0.000000
n -t 5.350010 -s 4 -x 134.896271 -y 280.708600 -z 4.743257 -U 0.744678 -V -2.076709 -T 0.000000
n -t 5.350010 -s 5 -x 79.642114 -y 127.519405 -z 0.231986 -U 3.105350 -V 3.026019 -T 0.000000
n -t 5.350010 -s 6 -x 269.538781 -y 100.771626 -z 4.981392 -U -1.334818 -V 0.810498 -T 0.000000
n -t 5.350010 -s 7 -x 251.510269 -y 233.512520 -z 1.567479 -U -1.094615 -V -0.193132 -T 0.000000
n -t 5.360010 -s 0 -x 242.954818 -y 10.881327 -z 3.944107 -U -1.129990 -V 1.270210 -T 0.000000
n -t 5.360010 -s 1 -x 48.902813 -y 7.061632 -z 7.911090 -U 2.297223 -V 3.975427 -T 0.000000
n -t 5.360010 -s 2 -x 58.572483 -y 70.402780 -z 2.962481 -U 1.486280 -V 2.309642 -T 0.000000
n -t 5.360010 -s 3 -x 280.747458 -y 288.669833 -z 6.460489 -U -1.447501 -V -1.584152 -T 0.000000
n -t 5.360010 -s 4 -x 134.903717 -y 280.687833 -z 4.743511 -U 0.744678 -V -2.076709 -T 0.000000
n -t 5.360010 -s 5 -x 79.673167 -y 127.549665 -z 0.233426 -U 3.105350 -V 3.026019 -T 0.000000
n -t 5.360010 -s 6 -x 269.525432 -y 100.779731 -z 4.981571 -U -1.334818 -V 0.810498 -T 0.000000
n -t 5.360010 -s 7 -x 251.499323 -y 233.510589 -z 1.567676 -U -1.094615 -V -0.193132 -T 0.000000
n -t 5.370010 -s 0 -x 242.943518 -y 10.894029 -z 3.943905 -U -1.129990 -V 1.270210 -T 0.000000
n -t 5.370010 -s 1 -x 48.925786 -y 7.101387 -z 7.911046 -U 2.297223 -V 3.975427 -T 0.000000
n -t 5.370010 -s 2 -x 58.587346 -y 70.425876 -z 2.962173 -U 1.486280 -V 2.309642 -T 0.000000
n -t 5.370010 -s 3 -x 280.732983 -y 288.653992 -z 6.460824 -U -1.447501 -V -1.584152 -T 0.000000
n -t 5.370010 -s 4 -x 134.911164 -y 280.667066 -z 4.743766 -U 0.744678 -V -2.076709 -T 0.000000
n -t 5.370010 -s 5 -x 79.704221 -y 127.579925 -z 0.234867 -U 3.105350 -V 3.026019 -T 0.000000
n -t 5.370010 -s 6 -x 269.512084 -y 100.787836 -z 4.981750 -U -1.334818 -V 0.810498 -T 0.000000
n -t 5.370010 -s 7 -x 251.488377 -y 233.508658 -z 1.567873 -U -1.094615 -V -0.193132 -T 0.000000
n -t 5.380010 -s 0 -x 242.932218 -y 10.906731 -z 3.943704 -U -1.129990 -V 1.270210 -T 0.000000
n -t 5.380010 -s 1 -x 48.948758 -y 7.141141 -z 7.911003 -U 2.297223 -V 3.975427 -T 0.000000
n -t 5.380010 -s 2 -x 58.602208 -y 70.448973 -z 2.961865 -U 1.486280 -V 2.309642 -T 0.000000
n -t 5.380010 -s 3 -x 280.718508 -y 288.638150 -z 6.461159 -U -1.447501 -V -1.584152 -T 0.000000
n -t 5.380010 -s 4 -x 134.918611 -y 280.646299 -z 4.744021 -U 0.744678 -V -2.076709 -T 0.000000
n -t 5.380010 -s 5 -x 79.735274 -y 127.610186 -z 0.236308 -U 3.105350 -V 3.026019 -T 0.000000