N -t 1.000000 -n 0 -e 9999.992000
N -t 1.000000 -n 1 -e 9999.992000
N -t 1.000000 -n 2 -e 9999.992000
N -t 1.000000 -n 3 -e 9999.992000
N -t 1.000000 -n 4 -e 9999.992000
N -t 1.000000 -n 5 -e 9999.992000
s 1.330025000 _1_ MAC  --- 0 vectorbasedforward 50 [0 1000000 ffff0008 0] [energy 9999.992000 ei 0.008 es 0.000 et 0.000 er 0.000] ------- [1:0 1:255 0 0] 
r 1.396691667 _2_ MAC  --- 0 vectorbasedforward 50 [0 1000000 ffff0008 0] [energy 9999.959146 ei 0.011 es 0.000 et 0.000 er 0.030] ------- [1:0 1:255 0 0] 
r 1.410025000 _0_ MAC  --- 0 vectorbasedforward 50 [0 1000000 ffff0008 0] [energy 9999.959040 ei 0.011 es 0.000 et 0.000 er 0.030] ------- [1:0 1:255 0 0] 
r 1.436691667 _3_ MAC  --- 0 vectorbasedforward 50 [0 1000000 ffff0008 0] [energy 9999.958826 ei 0.011 es 0.000 et 0.000 er 0.030] ------- [1:0 1:255 0 0] 
s 1.830025000 _2_ MAC  --- 1 vectorbasedforward 50 [0 2000000 ffff0008 0] [energy 9999.959146 ei 0.011 es 0.000 et 0.000 er 0.030] ------- [2:0 2:255 0 0] 
r 1.896691667 _1_ MAC  --- 1 vectorbasedforward 50 [0 2000000 ffff0008 0] [energy 9999.875466 ei 0.015 es 0.000 et 0.080 er 0.030] ------- [2:0 2:255 0 0] 
r 1.910025000 _3_ MAC  --- 1 vectorbasedforward 50 [0 2000000 ffff0008 0] [energy 9999.925360 ei 0.015 es 0.000 et 0.000 er 0.060] ------- [2:0 2:255 0 0] 
r 1.936691667 _0_ MAC  --- 1 vectorbasedforward 50 [0 2000000 ffff0008 0] [energy 9999.925146 ei 0.015 es 0.000 et 0.000 er 0.060] ------- [2:0 2:255 0 0] 
N -t 2.000000 -n 0 -e 9999.924640
N -t 2.000000 -n 1 -e 9999.874640
N -t 2.000000 -n 2 -e 9999.874640
N -t 2.000000 -n 3 -e 9999.924640
N -t 2.000000 -n 4 -e 9999.984000
N -t 2.000000 -n 5 -e 9999.984000
s 2.330025000 _3_ MAC  --- 2 vectorbasedforward 50 [0 3000000 ffff0008 0] [energy 9999.924640 ei 0.015 es 0.000 et 0.000 er 0.060] ------- [3:0 3:255 0 0] 
r 2.410025000 _4_ MAC  --- 2 vectorbasedforward 50 [0 3000000 ffff0008 0] [energy 9999.951040 ei 0.019 es 0.000 et 0.000 er 0.030] ------- [3:0 3:255 0 0] 
r 2.410025000 _2_ MAC  --- 2 vectorbasedforward 50 [0 3000000 ffff0008 0] [energy 9999.841680 ei 0.018 es 0.000 et 0.080 er 0.060] ------- [3:0 3:255 0 0] 
r 2.436691667 _5_ MAC  --- 2 vectorbasedforward 50 [0 3000000 ffff0008 0] [energy 9999.950826 ei 0.019 es 0.000 et 0.000 er 0.030] ------- [3:0 3:255 0 0] 
r 2.436691667 _1_ MAC  --- 2 vectorbasedforward 50 [0 3000000 ffff0008 0] [energy 9999.841466 ei 0.019 es 0.000 et 0.080 er 0.060] ------- [3:0 3:255 0 0] 
s 2.621243563 _3_ MAC  --- 1 vectorbasedforward 50 [0 3000000 ffff0008 0] [energy 9999.842000 ei 0.018 es 0.000 et 0.080 er 0.060] ------- [2:0 2:255 0 0] 
r 2.701243563 _4_ MAC  --- 1 vectorbasedforward 50 [0 3000000 ffff0008 0] [energy 9999.919030 ei 0.021 es 0.000 et 0.000 er 0.060] ------- [2:0 2:255 0 0] 
r 2.701243563 _2_ MAC  --- 1 vectorbasedforward 50 [0 3000000 ffff0008 0] [energy 9999.809670 ei 0.020 es 0.000 et 0.080 er 0.090] ------- [2:0 2:255 0 0] 
r 2.727910229 _5_ MAC  --- 1 vectorbasedforward 50 [0 3000000 ffff0008 0] [energy 9999.918817 ei 0.021 es 0.000 et 0.000 er 0.060] ------- [2:0 2:255 0 0] 
r 2.727910229 _1_ MAC  --- 1 vectorbasedforward 50 [0 3000000 ffff0008 0] [energy 9999.809457 ei 0.021 es 0.000 et 0.080 er 0.090] ------- [2:0 2:255 0 0] 
s 2.742914152 _5_ MAC  --- 2 vectorbasedforward 50 [0 5000000 ffff0008 0] [energy 9999.918817 ei 0.021 es 0.000 et 0.000 er 0.060] ------- [3:0 3:255 0 0] 
r 2.809580819 _4_ MAC  --- 2 vectorbasedforward 50 [0 5000000 ffff0008 0] [energy 9999.888483 ei 0.022 es 0.000 et 0.000 er 0.090] ------- [3:0 3:255 0 0] 
s 2.830025000 _4_ MAC  --- 3 vectorbasedforward 50 [0 4000000 ffff0008 0] [energy 9999.888483 ei 0.022 es 0.000 et 0.000 er 0.090] ------- [4:0 4:255 0 0] 
r 2.849580819 _3_ MAC  --- 2 vectorbasedforward 50 [0 5000000 ffff0008 0] [energy 9999.728803 ei 0.021 es 0.000 et 0.160 er 0.090] ------- [3:0 3:255 0 0] 
r 2.896691667 _5_ MAC  --- 3 vectorbasedforward 50 [0 4000000 ffff0008 0] [energy 9999.808106 ei 0.022 es 0.000 et 0.080 er 0.090] ------- [4:0 4:255 0 0] 
r 2.910025000 _3_ MAC  --- 3 vectorbasedforward 50 [0 4000000 ffff0008 0] [energy 9999.698640 ei 0.021 es 0.000 et 0.160 er 0.120] ------- [4:0 4:255 0 0] 
N -t 3.000000 -n 0 -e 9999.916640
N -t 3.000000 -n 1 -e 9999.807280
N -t 3.000000 -n 2 -e 9999.807280
N -t 3.000000 -n 3 -e 9999.697920
N -t 3.000000 -n 4 -e 9999.807280
N -t 3.000000 -n 5 -e 9999.807280
s 3.022895005 _5_ MAC  --- 1 vectorbasedforward 50 [0 5000000 ffff0008 0] [energy 9999.807280 ei 0.023 es 0.000 et 0.080 er 0.090] ------- [2:0 2:255 0 0] 
r 3.089561671 _4_ MAC  --- 1 vectorbasedforward 50 [0 5000000 ffff0008 0] [energy 9999.776884 ei 0.023 es 0.000 et 0.080 er 0.120] ------- [2:0 2:255 0 0] 
s 3.125488529 _4_ MAC  --- 2 vectorbasedforward 50 [0 4000000 ffff0008 0] [energy 9999.776884 ei 0.023 es 0.000 et 0.080 er 0.120] ------- [3:0 3:255 0 0] 
r 3.129561671 _3_ MAC  --- 1 vectorbasedforward 50 [0 5000000 ffff0008 0] [energy 9999.667204 ei 0.023 es 0.000 et 0.160 er 0.150] ------- [2:0 2:255 0 0] 
r 3.192155196 _5_ MAC  --- 2 vectorbasedforward 50 [0 4000000 ffff0008 0] [energy 9999.696383 ei 0.024 es 0.000 et 0.160 er 0.120] ------- [3:0 3:255 0 0] 
r 3.205488529 _3_ MAC  --- 2 vectorbasedforward 50 [0 4000000 ffff0008 0] [energy 9999.636916 ei 0.023 es 0.000 et 0.160 er 0.180] ------- [3:0 3:255 0 0] 
s 3.330025000 _5_ MAC  --- 4 vectorbasedforward 50 [0 5000000 ffff0008 0] [energy 9999.696383 ei 0.024 es 0.000 et 0.160 er 0.120] ------- [5:0 5:255 0 0] 
r 3.396691667 _4_ MAC  --- 4 vectorbasedforward 50 [0 5000000 ffff0008 0] [energy 9999.665066 ei 0.025 es 0.000 et 0.160 er 0.150] ------- [5:0 5:255 0 0] 
s 3.436500326 _4_ MAC  --- 1 vectorbasedforward 50 [0 4000000 ffff0008 0] [energy 9999.665066 ei 0.025 es 0.000 et 0.160 er 0.150] ------- [2:0 2:255 0 0] 
r 3.436691667 _3_ MAC  --- 4 vectorbasedforward 50 [0 5000000 ffff0008 0] [energy 9999.605386 ei 0.025 es 0.000 et 0.160 er 0.210] ------- [5:0 5:255 0 0] 
s 3.436741667 _3_ MAC  --- 4 vectorbasedforward 50 [0 3000000 ffff0008 0] [energy 9999.605386 ei 0.025 es 0.000 et 0.160 er 0.210] ------- [5:0 5:255 0 0] 
r 3.503166992 _5_ MAC  --- 1 vectorbasedforward 50 [0 4000000 ffff0008 0] [energy 9999.584535 ei 0.025 es 0.000 et 0.240 er 0.150] ------- [2:0 2:255 0 0] 
r 3.516500326 _3_ MAC  --- 1 vectorbasedforward 50 [0 4000000 ffff0008 0] [energy 9999.495567 ei 0.025 es 0.000 et 0.240 er 0.240] ------- [2:0 2:255 0 0] 
r 3.516741667 _4_ MAC  --- 4 vectorbasedforward 50 [0 3000000 ffff0008 0] [energy 9999.554746 ei 0.025 es 0.000 et 0.240 er 0.180] ------- [5:0 5:255 0 0] 
r 3.516741667 _2_ MAC  --- 4 vectorbasedforward 50 [0 3000000 ffff0008 0] [energy 9999.773466 ei 0.027 es 0.000 et 0.080 er 0.120] ------- [5:0 5:255 0 0] 
r 3.543408333 _5_ MAC  --- 4 vectorbasedforward 50 [0 3000000 ffff0008 0] [energy 9999.554533 ei 0.025 es 0.000 et 0.240 er 0.180] ------- [5:0 5:255 0 0] 
r 3.543408333 _1_ MAC  --- 4 vectorbasedforward 50 [0 3000000 ffff0008 0] [energy 9999.773253 ei 0.027 es 0.000 et 0.080 er 0.120] ------- [5:0 5:255 0 0] 
s 3.543458333 _1_ MAC  --- 4 vectorbasedforward 50 [0 1000000 ffff0008 0] [energy 9999.773253 ei 0.027 es 0.000 et 0.080 er 0.120] ------- [5:0 5:255 0 0] 
r 3.610125000 _2_ MAC  --- 4 vectorbasedforward 50 [0 1000000 ffff0008 0] [energy 9999.743039 ei 0.027 es 0.000 et 0.080 er 0.150] ------- [5:0 5:255 0 0] 
r 3.623458333 _0_ MAC  --- 4 vectorbasedforward 50 [0 1000000 ffff0008 0] [energy 9999.881972 ei 0.028 es 0.000 et 0.000 er 0.090] ------- [5:0 5:255 0 0] 
r 3.650125000 _3_ MAC  --- 4 vectorbasedforward 50 [0 1000000 ffff0008 0] [energy 9999.464818 ei 0.025 es 0.000 et 0.240 er 0.270] ------- [5:0 5:255 0 0] 
s 3.770994944 _5_ MAC  --- 3 vectorbasedforward 50 [0 5000000 ffff0008 0] [energy 9999.554533 ei 0.025 es 0.000 et 0.240 er 0.180] ------- [4:0 4:255 0 0] 
r 3.837661611 _4_ MAC  --- 3 vectorbasedforward 50 [0 5000000 ffff0008 0] [energy 9999.522499 ei 0.028 es 0.000 et 0.240 er 0.210] ------- [4:0 4:255 0 0] 
r 3.877661611 _3_ MAC  --- 3 vectorbasedforward 50 [0 5000000 ffff0008 0] [energy 9999.433318 ei 0.027 es 0.000 et 0.240 er 0.300] ------- [4:0 4:255 0 0] 
N -t 4.000000 -n 0 -e 9999.878960
N -t 4.000000 -n 1 -e 9999.689920
N -t 4.000000 -n 2 -e 9999.739920
N -t 4.000000 -n 3 -e 9999.432339
N -t 4.000000 -n 4 -e 9999.521200
N -t 4.000000 -n 5 -e 9999.471200
s 4.202580532 _2_ MAC  --- 4 vectorbasedforward 50 [0 2000000 ffff0008 0] [energy 9999.739920 ei 0.030 es 0.000 et 0.080 er 0.150] ------- [5:0 5:255 0 0] 
s 4.251338336 _4_ MAC  --- 4 vectorbasedforward 50 [0 4000000 ffff0008 0] [energy 9999.521200 ei 0.029 es 0.000 et 0.240 er 0.210] ------- [5:0 5:255 0 0] 
r 4.269247199 _1_ MAC  --- 4 vectorbasedforward 50 [0 2000000 ffff0008 0] [energy 9999.658086 ei 0.032 es 0.000 et 0.160 er 0.150] ------- [5:0 5:255 0 0] 
r 4.282580532 _3_ MAC  --- 4 vectorbasedforward 50 [0 2000000 ffff0008 0] [energy 9999.400398 ei 0.030 es 0.000 et 0.240 er 0.330] ------- [5:0 5:255 0 0] 
r 4.309247199 _0_ MAC  --- 4 vectorbasedforward 50 [0 2000000 ffff0008 0] [energy 9999.846806 ei 0.033 es 0.000 et 0.000 er 0.120] ------- [5:0 5:255 0 0] 
r 4.318005003 _5_ MAC  --- 4 vectorbasedforward 50 [0 4000000 ffff0008 0] [energy 9999.438976 ei 0.031 es 0.000 et 0.320 er 0.210] ------- [5:0 5:255 0 0] 
r 4.331338336 _3_ MAC  --- 4 vectorbasedforward 50 [0 4000000 ffff0008 0] [energy 9999.370328 ei 0.030 es 0.000 et 0.240 er 0.360] ------- [5:0 5:255 0 0] 
N -t 5.000000 -n 0 -e 9999.841280
N -t 5.000000 -n 1 -e 9999.652240
N -t 5.000000 -n 2 -e 9999.652240
N -t 5.000000 -n 3 -e 9999.364979
N -t 5.000000 -n 4 -e 9999.433520
N -t 5.000000 -n 5 -e 9999.433520
N -t 6.000000 -n 0 -e 9999.833280
N -t 6.000000 -n 1 -e 9999.644240
N -t 6.000000 -n 2 -e 9999.644240
N -t 6.000000 -n 3 -e 9999.356979
N -t 6.000000 -n 4 -e 9999.425520
N -t 6.000000 -n 5 -e 9999.425520
N -t 7.000000 -n 0 -e 9999.825280
N -t 7.000000 -n 1 -e 9999.636240
N -t 7.000000 -n 2 -e 9999.636240
N -t 7.000000 -n 3 -e 9999.348979
N -t 7.000000 -n 4 -e 9999.417520
N -t 7.000000 -n 5 -e 9999.417520
N -t 8.000000 -n 0 -e 9999.817280
N -t 8.000000 -n 1 -e 9999.628240
N -t 8.000000 -n 2 -e 9999.628240
N -t 8.000000 -n 3 -e 9999.340979
N -t 8.000000 -n 4 -e 9999.409520
N -t 8.000000 -n 5 -e 9999.409520
N -t 9.000000 -n 0 -e 9999.809280
N -t 9.000000 -n 1 -e 9999.620240
N -t 9.000000 -n 2 -e 9999.620240
N -t 9.000000 -n 3 -e 9999.332979
N -t 9.000000 -n 4 -e 9999.401520
N -t 9.000000 -n 5 -e 9999.401520
N -t 10.000000 -n 0 -e 9999.801280
N -t 10.000000 -n 1 -e 9999.612240
N -t 10.000000 -n 2 -e 9999.612240
N -t 10.000000 -n 3 -e 9999.324979
N -t 10.000000 -n 4 -e 9999.393520
N -t 10.000000 -n 5 -e 9999.393520
N -t 11.000000 -n 0 -e 9999.793280
N -t 11.000000 -n 1 -e 9999.604240
N -t 11.000000 -n 2 -e 9999.604240
N -t 11.000000 -n 3 -e 9999.316979
N -t 11.000000 -n 4 -e 9999.385520
N -t 11.000000 -n 5 -e 9999.385520
s 11.330025000 _1_ MAC  --- 5 vectorbasedforward 50 [0 1000000 ffff0008 0] [energy 9999.604240 ei 0.086 es 0.000 et 0.160 er 0.150] ------- [1:0 1:255 0 0] 
r 11.396691667 _2_ MAC  --- 5 vectorbasedforward 50 [0 1000000 ffff0008 0] [energy 9999.571386 ei 0.089 es 0.000 et 0.160 er 0.180] ------- [1:0 1:255 0 0] 
r 11.410025000 _0_ MAC  --- 5 vectorbasedforward 50 [0 1000000 ffff0008 0] [energy 9999.760320 ei 0.090 es 0.000 et 0.000 er 0.150] ------- [1:0 1:255 0 0] 
r 11.436691667 _3_ MAC  --- 5 vectorbasedforward 50 [0 1000000 ffff0008 0] [energy 9999.283806 ei 0.086 es 0.000 et 0.240 er 0.390] ------- [1:0 1:255 0 0] 
s 11.659748904 _3_ MAC  --- 5 vectorbasedforward 50 [0 3000000 ffff0008 0] [energy 9999.283806 ei 0.086 es 0.000 et 0.240 er 0.390] ------- [1:0 1:255 0 0] 
r 11.739748904 _4_ MAC  --- 5 vectorbasedforward 50 [0 3000000 ffff0008 0] [energy 9999.349922 ei 0.090 es 0.000 et 0.320 er 0.240] ------- [1:0 1:255 0 0] 
r 11.739748904 _2_ MAC  --- 5 vectorbasedforward 50 [0 3000000 ffff0008 0] [energy 9999.538962 ei 0.091 es 0.000 et 0.160 er 0.210] ------- [1:0 1:255 0 0] 
r 11.766415571 _5_ MAC  --- 5 vectorbasedforward 50 [0 3000000 ffff0008 0] [energy 9999.349709 ei 0.090 es 0.000 et 0.320 er 0.240] ------- [1:0 1:255 0 0] 
r 11.766415571 _1_ MAC  --- 5 vectorbasedforward 50 [0 3000000 ffff0008 0] [energy 9999.488749 ei 0.091 es 0.000 et 0.240 er 0.180] ------- [1:0 1:255 0 0] 
s 11.830025000 _2_ MAC  --- 6 vectorbasedforward 50 [0 2000000 ffff0008 0] [energy 9999.538962 ei 0.091 es 0.000 et 0.160 er 0.210] ------- [2:0 2:255 0 0] 
r 11.896691667 _1_ MAC  --- 6 vectorbasedforward 50 [0 2000000 ffff0008 0] [energy 9999.458026 ei 0.092 es 0.000 et 0.240 er 0.210] ------- [2:0 2:255 0 0] 
r 11.910025000 _3_ MAC  --- 6 vectorbasedforward 50 [0 2000000 ffff0008 0] [energy 9999.170659 ei 0.090 es 0.000 et 0.320 er 0.420] ------- [2:0 2:255 0 0] 
r 11.936691667 _0_ MAC  --- 6 vectorbasedforward 50 [0 2000000 ffff0008 0] [energy 9999.726426 ei 0.094 es 0.000 et 0.000 er 0.180] ------- [2:0 2:255 0 0] 
N -t 12.000000 -n 0 -e 9999.725920
N -t 12.000000 -n 1 -e 9999.457200
N -t 12.000000 -n 2 -e 9999.457200
N -t 12.000000 -n 3 -e 9999.169939
N -t 12.000000 -n 4 -e 9999.347840
N -t 12.000000 -n 5 -e 9999.347840
s 12.081154521 _5_ MAC  --- 5 vectorbasedforward 50 [0 5000000 ffff0008 0] [energy 9999.347840 ei 0.092 es 0.000 et 0.320 er 0.240] ------- [1:0 1:255 0 0] 
r 12.147821188 _4_ MAC  --- 5 vectorbasedforward 50 [0 5000000 ffff0008 0] [energy 9999.316977 ei 0.093 es 0.000 et 0.320 er 0.270] ------- [1:0 1:255 0 0] 
r 12.187821188 _3_ MAC  --- 5 vectorbasedforward 50 [0 5000000 ffff0008 0] [energy 9999.138757 ei 0.091 es 0.000 et 0.320 er 0.450] ------- [1:0 1:255 0 0] 
s 12.264074437 _2_ MAC  --- 5 vectorbasedforward 50 [0 2000000 ffff0008 0] [energy 9999.457200 ei 0.093 es 0.000 et 0.240 er 0.210] ------- [1:0 1:255 0 0] 
r 12.330741104 _1_ MAC  --- 5 vectorbasedforward 50 [0 2000000 ffff0008 0] [energy 9999.424874 ei 0.095 es 0.000 et 0.240 er 0.240] ------- [1:0 1:255 0 0] 
r 12.344074437 _3_ MAC  --- 5 vectorbasedforward 50 [0 2000000 ffff0008 0] [energy 9999.107826 ei 0.092 es 0.000 et 0.320 er 0.480] ------- [1:0 1:255 0 0] 
r 12.370741104 _0_ MAC  --- 5 vectorbasedforward 50 [0 2000000 ffff0008 0] [energy 9999.693274 ei 0.097 es 0.000 et 0.000 er 0.210] ------- [1:0 1:255 0 0] 
s 12.410481435 _3_ MAC  --- 7 vectorbasedforward 50 [0 3000000 ffff0008 0] [energy 9999.107826 ei 0.092 es 0.000 et 0.320 er 0.480] ------- [3:0 3:255 0 0] 
r 12.490481435 _4_ MAC  --- 7 vectorbasedforward 50 [0 3000000 ffff0008 0] [energy 9999.284556 ei 0.095 es 0.000 et 0.320 er 0.300] ------- [3:0 3:255 0 0] 
r 12.490481435 _2_ MAC  --- 7 vectorbasedforward 50 [0 3000000 ffff0008 0] [energy 9999.343916 ei 0.096 es 0.000 et 0.320 er 0.240] ------- [3:0 3:255 0 0] 
r 12.517148102 _5_ MAC  --- 7 vectorbasedforward 50 [0 3000000 ffff0008 0] [energy 9999.234343 ei 0.096 es 0.000 et 0.400 er 0.270] ------- [3:0 3:255 0 0] 
r 12.517148102 _1_ MAC  --- 7 vectorbasedforward 50 [0 3000000 ffff0008 0] [energy 9999.393703 ei 0.096 es 0.000 et 0.240 er 0.270] ------- [3:0 3:255 0 0] 
s 12.523850163 _4_ MAC  --- 5 vectorbasedforward 50 [0 4000000 ffff0008 0] [energy 9999.284556 ei 0.095 es 0.000 et 0.320 er 0.300] ------- [1:0 1:255 0 0] 
r 12.590516830 _5_ MAC  --- 5 vectorbasedforward 50 [0 4000000 ffff0008 0] [energy 9999.204076 ei 0.096 es 0.000 et 0.400 er 0.300] ------- [1:0 1:255 0 0] 
r 12.603850163 _3_ MAC  --- 5 vectorbasedforward 50 [0 4000000 ffff0008 0] [energy 9998.996388 ei 0.094 es 0.000 et 0.400 er 0.510] ------- [1:0 1:255 0 0] 
s 12.621243563 _3_ MAC  --- 6 vectorbasedforward 50 [0 3000000 ffff0008 0] [energy 9998.996388 ei 0.094 es 0.000 et 0.400 er 0.510] ------- [2:0 2:255 0 0] 
r 12.701243563 _4_ MAC  --- 6 vectorbasedforward 50 [0 3000000 ffff0008 0] [energy 9999.173510 ei 0.096 es 0.000 et 0.400 er 0.330] ------- [2:0 2:255 0 0] 
r 12.701243563 _2_ MAC  --- 6 vectorbasedforward 50 [0 3000000 ffff0008 0] [energy 9999.312550 ei 0.097 es 0.000 et 0.320 er 0.270] ------- [2:0 2:255 0 0] 
r 12.727910229 _5_ MAC  --- 6 vectorbasedforward 50 [0 3000000 ffff0008 0] [energy 9999.173297 ei 0.097 es 0.000 et 0.400 er 0.330] ------- [2:0 2:255 0 0] 
r 12.727910229 _1_ MAC  --- 6 vectorbasedforward 50 [0 3000000 ffff0008 0] [energy 9999.362337 ei 0.098 es 0.000 et 0.240 er 0.300] ------- [2:0 2:255 0 0] 
s 12.770016172 _5_ MAC  --- 7 vectorbasedforward 50 [0 5000000 ffff0008 0] [energy 9999.173297 ei 0.097 es 0.000 et 0.400 er 0.330] ------- [3:0 3:255 0 0] 
r 12.836682839 _4_ MAC  --- 7 vectorbasedforward 50 [0 5000000 ffff0008 0] [energy 9999.142747 ei 0.097 es 0.000 et 0.400 er 0.360] ------- [3:0 3:255 0 0] 
s 12.867258302 _4_ MAC  --- 8 vectorbasedforward 50 [0 4000000 ffff0008 0] [energy 9999.142747 ei 0.097 es 0.000 et 0.400 er 0.360] ------- [4:0 4:255 0 0] 
r 12.876682839 _3_ MAC  --- 7 vectorbasedforward 50 [0 5000000 ffff0008 0] [energy 9998.884846 ei 0.095 es 0.000 et 0.480 er 0.540] ------- [3:0 3:255 0 0] 
r 12.933924969 _5_ MAC  --- 8 vectorbasedforward 50 [0 4000000 ffff0008 0] [energy 9999.062289 ei 0.098 es 0.000 et 0.480 er 0.360] ------- [4:0 4:255 0 0] 
r 12.947258302 _3_ MAC  --- 8 vectorbasedforward 50 [0 4000000 ffff0008 0] [energy 9998.854601 ei 0.096 es 0.000 et 0.480 er 0.570] ------- [4:0 4:255 0 0] 
N -t 13.000000 -n 0 -e 9999.688240
N -t 13.000000 -n 1 -e 9999.360160
N -t 13.000000 -n 2 -e 9999.310160
N -t 13.000000 -n 3 -e 9998.854179
N -t 13.000000 -n 4 -e 9999.061760
N -t 13.000000 -n 5 -e 9999.061760
s 13.022895005 _5_ MAC  --- 6 vectorbasedforward 50 [0 5000000 ffff0008 0] [energy 9999.061760 ei 0.098 es 0.000 et 0.480 er 0.360] ------- [2:0 2:255 0 0] 
r 13.089561671 _4_ MAC  --- 6 vectorbasedforward 50 [0 5000000 ffff0008 0] [energy 9999.031364 ei 0.099 es 0.000 et 0.480 er 0.390] ------- [2:0 2:255 0 0] 
r 13.129561671 _3_ MAC  --- 6 vectorbasedforward 50 [0 5000000 ffff0008 0] [energy 9998.823463 ei 0.097 es 0.000 et 0.480 er 0.600] ------- [2:0 2:255 0 0] 
s 13.205944964 _4_ MAC  --- 7 vectorbasedforward 50 [0 4000000 ffff0008 0] [energy 9999.031364 ei 0.099 es 0.000 et 0.480 er 0.390] ------- [3:0 3:255 0 0] 
r 13.272611631 _5_ MAC  --- 7 vectorbasedforward 50 [0 4000000 ffff0008 0] [energy 9998.950219 ei 0.100 es 0.000 et 0.560 er 0.390] ------- [3:0 3:255 0 0] 
r 13.285944964 _3_ MAC  --- 7 vectorbasedforward 50 [0 4000000 ffff0008 0] [energy 9998.792532 ei 0.098 es 0.000 et 0.480 er 0.630] ------- [3:0 3:255 0 0] 
s 13.330025000 _5_ MAC  --- 9 vectorbasedforward 50 [0 5000000 ffff0008 0] [energy 9998.950219 ei 0.100 es 0.000 et 0.560 er 0.390] ------- [5:0 5:255 0 0] 
r 13.396691667 _4_ MAC  --- 9 vectorbasedforward 50 [0 5000000 ffff0008 0] [energy 9998.919546 ei 0.100 es 0.000 et 0.560 er 0.420] ------- [5:0 5:255 0 0] 
s 13.436500326 _4_ MAC  --- 6 vectorbasedforward 50 [0 4000000 ffff0008 0] [energy 9998.919546 ei 0.100 es 0.000 et 0.560 er 0.420] ------- [2:0 2:255 0 0] 
r 13.436691667 _3_ MAC  --- 9 vectorbasedforward 50 [0 5000000 ffff0008 0] [energy 9998.761646 ei 0.099 es 0.000 et 0.480 er 0.660] ------- [5:0 5:255 0 0] 
s 13.436741667 _3_ MAC  --- 9 vectorbasedforward 50 [0 3000000 ffff0008 0] [energy 9998.761646 ei 0.099 es 0.000 et 0.480 er 0.660] ------- [5:0 5:255 0 0] 
r 13.503166992 _5_ MAC  --- 6 vectorbasedforward 50 [0 4000000 ffff0008 0] [energy 9998.839015 ei 0.101 es 0.000 et 0.640 er 0.420] ------- [2:0 2:255 0 0] 
r 13.516500326 _3_ MAC  --- 6 vectorbasedforward 50 [0 4000000 ffff0008 0] [energy 9998.651826 ei 0.099 es 0.000 et 0.560 er 0.690] ------- [2:0 2:255 0 0] 
r 13.516741667 _4_ MAC  --- 9 vectorbasedforward 50 [0 3000000 ffff0008 0] [energy 9998.809226 ei 0.101 es 0.000 et 0.640 er 0.450] ------- [5:0 5:255 0 0] 
r 13.516741667 _2_ MAC  --- 9 vectorbasedforward 50 [0 3000000 ffff0008 0] [energy 9999.276346 ei 0.104 es 0.000 et 0.320 er 0.300] ------- [5:0 5:255 0 0] 
r 13.543408333 _5_ MAC  --- 9 vectorbasedforward 50 [0 3000000 ffff0008 0] [energy 9998.809013 ei 0.101 es 0.000 et 0.640 er 0.450] ------- [5:0 5:255 0 0] 
r 13.543408333 _1_ MAC  --- 9 vectorbasedforward 50 [0 3000000 ffff0008 0] [energy 9999.326133 ei 0.104 es 0.000 et 0.240 er 0.330] ------- [5:0 5:255 0 0] 
s 13.543458333 _1_ MAC  --- 9 vectorbasedforward 50 [0 1000000 ffff0008 0] [energy 9999.326133 ei 0.104 es 0.000 et 0.240 er 0.330] ------- [5:0 5:255 0 0] 
r 13.610125000 _2_ MAC  --- 9 vectorbasedforward 50 [0 1000000 ffff0008 0] [energy 9999.245919 ei 0.104 es 0.000 et 0.320 er 0.330] ------- [5:0 5:255 0 0] 
r 13.623458333 _0_ MAC  --- 9 vectorbasedforward 50 [0 1000000 ffff0008 0] [energy 9999.653572 ei 0.106 es 0.000 et 0.000 er 0.240] ------- [5:0 5:255 0 0] 
r 13.650125000 _3_ MAC  --- 9 vectorbasedforward 50 [0 1000000 ffff0008 0] [energy 9998.621077 ei 0.099 es 0.000 et 0.560 er 0.720] ------- [5:0 5:255 0 0] 
s 13.808228246 _5_ MAC  --- 8 vectorbasedforward 50 [0 5000000 ffff0008 0] [energy 9998.809013 ei 0.101 es 0.000 et 0.640 er 0.450] ------- [4:0 4:255 0 0] 
r 13.874894913 _4_ MAC  --- 8 vectorbasedforward 50 [0 5000000 ffff0008 0] [energy 9998.776681 ei 0.103 es 0.000 et 0.640 er 0.480] ------- [4:0 4:255 0 0] 
r 13.914894913 _3_ MAC  --- 8 vectorbasedforward 50 [0 5000000 ffff0008 0] [energy 9998.589279 ei 0.101 es 0.000 et 0.560 er 0.750] ------- [4:0 4:255 0 0] 
N -t 14.000000 -n 0 -e 9999.650560
N -t 14.000000 -n 1 -e 9999.242800
N -t 14.000000 -n 2 -e 9999.242800
N -t 14.000000 -n 3 -e 9998.588598
N -t 14.000000 -n 4 -e 9998.775680
N -t 14.000000 -n 5 -e 9998.725680
s 14.202580532 _2_ MAC  --- 9 vectorbasedforward 50 [0 2000000 ffff0008 0] [energy 9999.242800 ei 0.107 es 0.000 et 0.320 er 0.330] ------- [5:0 5:255 0 0] 
s 14.251338336 _4_ MAC  --- 9 vectorbasedforward 50 [0 4000000 ffff0008 0] [energy 9998.775680 ei 0.104 es 0.000 et 0.640 er 0.480] ------- [5:0 5:255 0 0] 
r 14.269247199 _1_ MAC  --- 9 vectorbasedforward 50 [0 2000000 ffff0008 0] [energy 9999.210966 ei 0.109 es 0.000 et 0.320 er 0.360] ------- [5:0 5:255 0 0] 
r 14.282580532 _3_ MAC  --- 9 vectorbasedforward 50 [0 2000000 ffff0008 0] [energy 9998.556658 ei 0.104 es 0.000 et 0.560 er 0.780] ------- [5:0 5:255 0 0] 
r 14.309247199 _0_ MAC  --- 9 vectorbasedforward 50 [0 2000000 ffff0008 0] [energy 9999.618406 ei 0.112 es 0.000 et 0.000 er 0.270] ------- [5:0 5:255 0 0] 
r 14.318005003 _5_ MAC  --- 9 vectorbasedforward 50 [0 4000000 ffff0008 0] [energy 9998.693456 ei 0.107 es 0.000 et 0.720 er 0.480] ------- [5:0 5:255 0 0] 
r 14.331338336 _3_ MAC  --- 9 vectorbasedforward 50 [0 4000000 ffff0008 0] [energy 9998.526587 ei 0.104 es 0.000 et 0.560 er 0.810] ------- [5:0 5:255 0 0] 
N -t 15.000000 -n 0 -e 9999.612880
N -t 15.000000 -n 1 -e 9999.205120
N -t 15.000000 -n 2 -e 9999.155120
N -t 15.000000 -n 3 -e 9998.521238
N -t 15.000000 -n 4 -e 9998.688000
N -t 15.000000 -n 5 -e 9998.688000
N -t 16.000000 -n 0 -e 9999.604880
N -t 16.000000 -n 1 -e 9999.197120
N -t 16.000000 -n 2 -e 9999.147120
N -t 16.000000 -n 3 -e 9998.513238
N -t 16.000000 -n 4 -e 9998.680000
N -t 16.000000 -n 5 -e 9998.680000
N -t 17.000000 -n 0 -e 9999.596880
N -t 17.000000 -n 1 -e 9999.189120
N -t 17.000000 -n 2 -e 9999.139120
N -t 17.000000 -n 3 -e 9998.505238
N -t 17.000000 -n 4 -e 9998.672000
N -t 17.000000 -n 5 -e 9998.672000
N -t 18.000000 -n 0 -e 9999.588880
N -t 18.000000 -n 1 -e 9999.181120
N -t 18.000000 -n 2 -e 9999.131120
N -t 18.000000 -n 3 -e 9998.497238
N -t 18.000000 -n 4 -e 9998.664000
N -t 18.000000 -n 5 -e 9998.664000
N -t 19.000000 -n 0 -e 9999.580880
N -t 19.000000 -n 1 -e 9999.173120
N -t 19.000000 -n 2 -e 9999.123120
N -t 19.000000 -n 3 -e 9998.489238
N -t 19.000000 -n 4 -e 9998.656000
N -t 19.000000 -n 5 -e 9998.656000
N -t 20.000000 -n 0 -e 9999.572880
N -t 20.000000 -n 1 -e 9999.165120
N -t 20.000000 -n 2 -e 9999.115120
N -t 20.000000 -n 3 -e 9998.481238
N -t 20.000000 -n 4 -e 9998.648000
N -t 20.000000 -n 5 -e 9998.648000
N -t 21.000000 -n 0 -e 9999.564880
N -t 21.000000 -n 1 -e 9999.157120
N -t 21.000000 -n 2 -e 9999.107120
N -t 21.000000 -n 3 -e 9998.473238
N -t 21.000000 -n 4 -e 9998.640000
N -t 21.000000 -n 5 -e 9998.640000
s 21.330025000 _1_ MAC  --- 10 vectorbasedforward 50 [0 1000000 ffff0008 0] [energy 9999.157120 ei 0.163 es 0.000 et 0.320 er 0.360] ------- [1:0 1:255 0 0] 
r 21.396691667 _2_ MAC  --- 10 vectorbasedforward 50 [0 1000000 ffff0008 0] [energy 9999.074266 ei 0.166 es 0.000 et 0.400 er 0.360] ------- [1:0 1:255 0 0] 
r 21.410025000 _0_ MAC  --- 10 vectorbasedforward 50 [0 1000000 ffff0008 0] [energy 9999.531920 ei 0.168 es 0.000 et 0.000 er 0.300] ------- [1:0 1:255 0 0] 
r 21.436691667 _3_ MAC  --- 10 vectorbasedforward 50 [0 1000000 ffff0008 0] [energy 9998.440065 ei 0.160 es 0.000 et 0.560 er 0.840] ------- [1:0 1:255 0 0] 
s 21.659748904 _3_ MAC  --- 10 vectorbasedforward 50 [0 3000000 ffff0008 0] [energy 9998.440065 ei 0.160 es 0.000 et 0.560 er 0.840] ------- [1:0 1:255 0 0] 
r 21.739748904 _4_ MAC  --- 10 vectorbasedforward 50 [0 3000000 ffff0008 0] [energy 9998.604402 ei 0.166 es 0.000 et 0.720 er 0.510] ------- [1:0 1:255 0 0] 
r 21.739748904 _2_ MAC  --- 10 vectorbasedforward 50 [0 3000000 ffff0008 0] [energy 9999.041842 ei 0.168 es 0.000 et 0.400 er 0.390] ------- [1:0 1:255 0 0] 
r 21.766415571 _5_ MAC  --- 10 vectorbasedforward 50 [0 3000000 ffff0008 0] [energy 9998.604189 ei 0.166 es 0.000 et 0.720 er 0.510] ------- [1:0 1:255 0 0] 
r 21.766415571 _1_ MAC  --- 10 vectorbasedforward 50 [0 3000000 ffff0008 0] [energy 9999.041629 ei 0.168 es 0.000 et 0.400 er 0.390] ------- [1:0 1:255 0 0] 
s 21.830025000 _2_ MAC  --- 11 vectorbasedforward 50 [0 2000000 ffff0008 0] [energy 9999.041842 ei 0.168 es 0.000 et 0.400 er 0.390] ------- [2:0 2:255 0 0] 
r 21.896691667 _1_ MAC  --- 11 vectorbasedforward 50 [0 2000000 ffff0008 0] [energy 9999.010906 ei 0.169 es 0.000 et 0.400 er 0.420] ------- [2:0 2:255 0 0] 
r 21.910025000 _3_ MAC  --- 11 vectorbasedforward 50 [0 2000000 ffff0008 0] [energy 9998.326918 ei 0.163 es 0.000 et 0.640 er 0.870] ------- [2:0 2:255 0 0] 
r 21.936691667 _0_ MAC  --- 11 vectorbasedforward 50 [0 2000000 ffff0008 0] [energy 9999.498026 ei 0.172 es 0.000 et 0.000 er 0.330] ------- [2:0 2:255 0 0] 
N -t 22.000000 -n 0 -e 9999.497520
N -t 22.000000 -n 1 -e 9999.010080
N -t 22.000000 -n 2 -e 9998.960080
N -t 22.000000 -n 3 -e 9998.326198
N -t 22.000000 -n 4 -e 9998.602320
N -t 22.000000 -n 5 -e 9998.602320
s 22.081154521 _5_ MAC  --- 10 vectorbasedforward 50 [0 5000000 ffff0008 0] [energy 9998.602320 ei 0.168 es 0.000 et 0.720 er 0.510] ------- [1:0 1:255 0 0] 
r 22.147821188 _4_ MAC  --- 10 vectorbasedforward 50 [0 5000000 ffff0008 0] [energy 9998.571457 ei 0.169 es 0.000 et 0.720 er 0.540] ------- [1:0 1:255 0 0] 
r 22.187821188 _3_ MAC  --- 10 vectorbasedforward 50 [0 5000000 ffff0008 0] [energy 9998.295016 ei 0.165 es 0.000 et 0.640 er 0.900] ------- [1:0 1:255 0 0] 
s 22.264074437 _2_ MAC  --- 10 vectorbasedforward 50 [0 2000000 ffff0008 0] [energy 9998.960080 ei 0.170 es 0.000 et 0.480 er 0.390] ------- [1:0 1:255 0 0] 
r 22.330741104 _1_ MAC  --- 10 vectorbasedforward 50 [0 2000000 ffff0008 0] [energy 9998.977754 ei 0.172 es 0.000 et 0.400 er 0.450] ------- [1:0 1:255 0 0] 
r 22.344074437 _3_ MAC  --- 10 vectorbasedforward 50 [0 2000000 ffff0008 0] [energy 9998.264086 ei 0.166 es 0.000 et 0.640 er 0.930] ------- [1:0 1:255 0 0] 
r 22.370741104 _0_ MAC  --- 10 vectorbasedforward 50 [0 2000000 ffff0008 0] [energy 9999.464874 ei 0.175 es 0.000 et 0.000 er 0.360] ------- [1:0 1:255 0 0] 
s 22.392431739 _3_ MAC  --- 12 vectorbasedforward 50 [0 3000000 ffff0008 0] [energy 9998.264086 ei 0.166 es 0.000 et 0.640 er 0.930] ------- [3:0 3:255 0 0] 
r 22.472431739 _4_ MAC  --- 12 vectorbasedforward 50 [0 3000000 ffff0008 0] [energy 9998.539181 ei 0.171 es 0.000 et 0.720 er 0.570] ------- [3:0 3:255 0 0] 
r 22.472431739 _2_ MAC  --- 12 vectorbasedforward 50 [0 3000000 ffff0008 0] [energy 9998.846941 ei 0.173 es 0.000 et 0.560 er 0.420] ------- [3:0 3:255 0 0] 
s 22.485113898 _4_ MAC  --- 10 vectorbasedforward 50 [0 4000000 ffff0008 0] [energy 9998.539181 ei 0.171 es 0.000 et 0.720 er 0.570] ------- [1:0 1:255 0 0] 
r 22.499098406 _5_ MAC  --- 12 vectorbasedforward 50 [0 3000000 ffff0008 0] [energy 9998.488967 ei 0.171 es 0.000 et 0.800 er 0.540] ------- [3:0 3:255 0 0] 
r 22.499098406 _1_ MAC  --- 12 vectorbasedforward 50 [0 3000000 ffff0008 0] [energy 9998.946727 ei 0.173 es 0.000 et 0.400 er 0.480] ------- [3:0 3:255 0 0] 
r 22.551780565 _5_ MAC  --- 10 vectorbasedforward 50 [0 4000000 ffff0008 0] [energy 9998.458866 ei 0.171 es 0.000 et 0.800 er 0.570] ------- [1:0 1:255 0 0] 
r 22.565113898 _3_ MAC  --- 10 vectorbasedforward 50 [0 4000000 ffff0008 0] [energy 9998.152957 ei 0.167 es 0.000 et 0.720 er 0.960] ------- [1:0 1:255 0 0] 
s 22.621243563 _3_ MAC  --- 11 vectorbasedforward 50 [0 3000000 ffff0008 0] [energy 9998.152957 ei 0.167 es 0.000 et 0.720 er 0.960] ------- [2:0 2:255 0 0] 
r 22.701243563 _4_ MAC  --- 11 vectorbasedforward 50 [0 3000000 ffff0008 0] [energy 9998.427990 ei 0.172 es 0.000 et 0.800 er 0.600] ------- [2:0 2:255 0 0] 
r 22.701243563 _2_ MAC  --- 11 vectorbasedforward 50 [0 3000000 ffff0008 0] [energy 9998.815430 ei 0.175 es 0.000 et 0.560 er 0.450] ------- [2:0 2:255 0 0] 
r 22.727910229 _5_ MAC  --- 11 vectorbasedforward 50 [0 3000000 ffff0008 0] [energy 9998.427777 ei 0.172 es 0.000 et 0.800 er 0.600] ------- [2:0 2:255 0 0] 
r 22.727910229 _1_ MAC  --- 11 vectorbasedforward 50 [0 3000000 ffff0008 0] [energy 9998.915217 ei 0.175 es 0.000 et 0.400 er 0.510] ------- [2:0 2:255 0 0] 
s 22.751966476 _5_ MAC  --- 12 vectorbasedforward 50 [0 5000000 ffff0008 0] [energy 9998.427777 ei 0.172 es 0.000 et 0.800 er 0.600] ------- [3:0 3:255 0 0] 
r 22.818633143 _4_ MAC  --- 12 vectorbasedforward 50 [0 5000000 ffff0008 0] [energy 9998.397371 ei 0.173 es 0.000 et 0.800 er 0.630] ------- [3:0 3:255 0 0] 
s 22.830025000 _4_ MAC  --- 13 vectorbasedforward 50 [0 4000000 ffff0008 0] [energy 9998.397371 ei 0.173 es 0.000 et 0.800 er 0.630] ------- [4:0 4:255 0 0] 
r 22.858633143 _3_ MAC  --- 12 vectorbasedforward 50 [0 5000000 ffff0008 0] [energy 9998.041249 ei 0.169 es 0.000 et 0.800 er 0.990] ------- [3:0 3:255 0 0] 