n -t * -s 0  -x 500 -y 0 -Z 0 -z 10  -v circle -c green
n -t * -s 1  -x 440 -y 0 -Z 0 -z 10  -v circle -c green
n -t * -s 2  -x 400 -y 0 -Z 0 -z 10  -v circle -c green
n -t * -s 3  -x 340 -y 0 -Z 0 -z 10  -v circle -c green
n -t * -s 4  -x 280 -y 0 -Z 0 -z 10  -v circle -c green
n -t * -s 5  -x 240 -y 0 -Z 0 -z 10  -v circle -c green
V -t * -v 1.0a5 -a 0
W -t * -x 1000 -y 10
A -t * -n 1 -p 0 -o 0xffffffff -c 31 -a 1
A -t * -h 1 -m 2147483647 -s 0
+ -t 1.330025000 -s 1 -d 0 -p vectorbasedforward -e 50 -c 2 -a 0 -i 0 -k MAC 
- -t 1.330025000 -s 1 -d 0 -p vectorbasedforward -e 50 -c 2 -a 0 -i 0 -k MAC
h -t 1.330025000 -s 1 -d 0 -p vectorbasedforward -e 50 -c 2 -a 0 -i 0 -k MAC -R 100.000000
v -t 1.330025000 -e sim_annotation 1.330025000 1 node 1 sendout packet (vectorbasedforward) 0
r -t 1.396691667 -s 2 -d 0 -p vectorbasedforward -e 50 -c 2 -a 0 -i 0 -k MAC -R 100.000000
v -t 1.396691667 -e sim_annotation 1.396691667 2 node 0 receive vectorbasedforward 0 from 2
r -t 1.410025000 -s 0 -d 0 -p vectorbasedforward -e 50 -c 2 -a 0 -i 0 -k MAC -R 100.000000
v -t 1.410025000 -e sim_annotation 1.410025000 3 node 0 receive vectorbasedforward 0 from 0
r -t 1.436691667 -s 3 -d 0 -p vectorbasedforward -e 50 -c 2 -a 0 -i 0 -k MAC -R 100.000000
v -t 1.436691667 -e sim_annotation 1.436691667 4 node 0 receive vectorbasedforward 0 from 3
+ -t 1.830025000 -s 2 -d 0 -p vectorbasedforward -e 50 -c 2 -a 0 -i 1 -k MAC 
- -t 1.830025000 -s 2 -d 0 -p vectorbasedforward -e 50 -c 2 -a 0 -i 1 -k MAC
h -t 1.830025000 -s 2 -d 0 -p vectorbasedforward -e 50 -c 2 -a 0 -i 1 -k MAC -R 100.000000
v -t 1.830025000 -e sim_annotation 1.830025000 5 node 2 sendout packet (vectorbasedforward) 1
r -t 1.896691667 -s 1 -d 0 -p vectorbasedforward -e 50 -c 2 -a 0 -i 1 -k MAC -R 100.000000
v -t 1.896691667 -e sim_annotation 1.896691667 6 node 0 receive vectorbasedforward 1 from 1
r -t 1.910025000 -s 3 -d 0 -p vectorbasedforward -e 50 -c 2 -a 0 -i 1 -k MAC -R 100.000000
v -t 1.910025000 -e sim_annotation 1.910025000 7 node 0 receive vectorbasedforward 1 from 3
r -t 1.936691667 -s 0 -d 0 -p vectorbasedforward -e 50 -c 2 -a 0 -i 1 -k MAC -R 100.000000
v -t 1.936691667 -e sim_annotation 1.936691667 8 node 0 receive vectorbasedforward 1 from 0
+ -t 2.330025000 -s 3 -d 0 -p vectorbasedforward -e 50 -c 2 -a 0 -i 2 -k MAC 
- -t 2.330025000 -s 3 -d 0 -p vectorbasedforward -e 50 -c 2 -a 0 -i 2 -k MAC
h -t 2.330025000 -s 3 -d 0 -p vectorbasedforward -e 50 -c 2 -a 0 -i 2 -k MAC -R 100.000000
v -t 2.330025000 -e sim_annotation 2.330025000 9 node 3 sendout packet (vectorbasedforward) 2
r -t 2.410025000 -s 4 -d 0 -p vectorbasedforward -e 50 -c 2 -a 0 -i 2 -k MAC -R 100.000000
v -t 2.410025000 -e sim_annotation 2.410025000 10 node 0 receive vectorbasedforward 2 from 4
r -t 2.410025000 -s 2 -d 0 -p vectorbasedforward -e 50 -c 2 -a 0 -i 2 -k MAC -R 100.000000
v -t 2.410025000 -e sim_annotation 2.410025000 11 node 0 receive vectorbasedforward 2 from 2
r -t 2.436691667 -s 5 -d 0 -p vectorbasedforward -e 50 -c 2 -a 0 -i 2 -k MAC -R 100.000000
v -t 2.436691667 -e sim_annotation 2.436691667 12 node 0 receive vectorbasedforward 2 from 5
r -t 2.436691667 -s 1 -d 0 -p vectorbasedforward -e 50 -c 2 -a 0 -i 2 -k MAC -R 100.000000
v -t 2.436691667 -e sim_annotation 2.436691667 13 node 0 receive vectorbasedforward 2 from 1
+ -t 2.621243563 -s 3 -d 0 -p vectorbasedforward -e 50 -c 2 -a 0 -i 1 -k MAC 
- -t 2.621243563 -s 3 -d 0 -p vectorbasedforward -e 50 -c 2 -a 0 -i 1 -k MAC
h -t 2.621243563 -s 3 -d 0 -p vectorbasedforward -e 50 -c 2 -a 0 -i 1 -k MAC -R 100.000000
v -t 2.621243563 -e sim_annotation 2.621243563 14 node 3 sendout packet (vectorbasedforward) 1
r -t 2.701243563 -s 4 -d 0 -p vectorbasedforward -e 50 -c 2 -a 0 -i 1 -k MAC -R 100.000000
v -t 2.701243563 -e sim_annotation 2.701243563 15 node 0 receive vectorbasedforward 1 from 4
r -t 2.701243563 -s 2 -d 0 -p vectorbasedforward -e 50 -c 2 -a 0 -i 1 -k MAC -R 100.000000
v -t 2.701243563 -e sim_annotation 2.701243563 16 node 0 receive vectorbasedforward 1 from 2
r -t 2.727910229 -s 5 -d 0 -p vectorbasedforward -e 50 -c 2 -a 0 -i 1 -k MAC -R 100.000000
v -t 2.727910229 -e sim_annotation 2.727910229 17 node 0 receive vectorbasedforward 1 from 5
r -t 2.727910229 -s 1 -d 0 -p vectorbasedforward -e 50 -c 2 -a 0 -i 1 -k MAC -R 100.000000
v -t 2.727910229 -e sim_annotation 2.727910229 18 node 0 receive vectorbasedforward 1 from 1
+ -t 2.742914152 -s 5 -d 0 -p vectorbasedforward -e 50 -c 2 -a 0 -i 2 -k MAC 
- -t 2.742914152 -s 5 -d 0 -p vectorbasedforward -e 50 -c 2 -a 0 -i 2 -k MAC
h -t 2.742914152 -s 5 -d 0 -p vectorbasedforward -e 50 -c 2 -a 0 -i 2 -k MAC -R 100.000000
v -t 2.742914152 -e sim_annotation 2.742914152 19 node 5 sendout packet (vectorbasedforward) 2
r -t 2.809580819 -s 4 -d 0 -p vectorbasedforward -e 50 -c 2 -a 0 -i 2 -k MAC -R 100.000000
v -t 2.809580819 -e sim_annotation 2.809580819 20 node 0 receive vectorbasedforward 2 from 4
+ -t 2.830025000 -s 4 -d 0 -p vectorbasedforward -e 50 -c 2 -a 0 -i 3 -k MAC 
- -t 2.830025000 -s 4 -d 0 -p vectorbasedforward -e 50 -c 2 -a 0 -i 3 -k MAC
h -t 2.830025000 -s 4 -d 0 -p vectorbasedforward -e 50 -c 2 -a 0 -i 3 -k MAC -R 100.000000
v -t 2.830025000 -e sim_annotation 2.830025000 21 node 4 sendout packet (vectorbasedforward) 3
r -t 2.849580819 -s 3 -d 0 -p vectorbasedforward -e 50 -c 2 -a 0 -i 2 -k MAC -R 100.000000
v -t 2.849580819 -e sim_annotation 2.849580819 22 node 0 receive vectorbasedforward 2 from 3
r -t 2.896691667 -s 5 -d 0 -p vectorbasedforward -e 50 -c 2 -a 0 -i 3 -k MAC -R 100.000000
v -t 2.896691667 -e sim_annotation 2.896691667 23 node 0 receive vectorbasedforward 3 from 5
r -t 2.910025000 -s 3 -d 0 -p vectorbasedforward -e 50 -c 2 -a 0 -i 3 -k MAC -R 100.000000
v -t 2.910025000 -e sim_annotation 2.910025000 24 node 0 receive vectorbasedforward 3 from 3
+ -t 3.022895005 -s 5 -d 0 -p vectorbasedforward -e 50 -c 2 -a 0 -i 1 -k MAC 
- -t 3.022895005 -s 5 -d 0 -p vectorbasedforward -e 50 -c 2 -a 0 -i 1 -k MAC
h -t 3.022895005 -s 5 -d 0 -p vectorbasedforward -e 50 -c 2 -a 0 -i 1 -k MAC -R 100.000000
v -t 3.022895005 -e sim_annotation 3.022895005 25 node 5 sendout packet (vectorbasedforward) 1
r -t 3.089561671 -s 4 -d 0 -p vectorbasedforward -e 50 -c 2 -a 0 -i 1 -k MAC -R 100.000000
v -t 3.089561671 -e sim_annotation 3.089561671 26 node 0 receive vectorbasedforward 1 from 4
+ -t 3.125488529 -s 4 -d 0 -p vectorbasedforward -e 50 -c 2 -a 0 -i 2 -k MAC 
- -t 3.125488529 -s 4 -d 0 -p vectorbasedforward -e 50 -c 2 -a 0 -i 2 -k MAC
h -t 3.125488529 -s 4 -d 0 -p vectorbasedforward -e 50 -c 2 -a 0 -i 2 -k MAC -R 100.000000
v -t 3.125488529 -e sim_annotation 3.125488529 27 node 4 sendout packet (vectorbasedforward) 2
r -t 3.129561671 -s 3 -d 0 -p vectorbasedforward -e 50 -c 2 -a 0 -i 1 -k MAC -R 100.000000
v -t 3.129561671 -e sim_annotation 3.129561671 28 node 0 receive vectorbasedforward 1 from 3
r -t 3.192155196 -s 5 -d 0 -p vectorbasedforward -e 50 -c 2 -a 0 -i 2 -k MAC -R 100.000000
v -t 3.192155196 -e sim_annotation 3.192155196 29 node 0 receive vectorbasedforward 2 from 5
r -t 3.205488529 -s 3 -d 0 -p vectorbasedforward -e 50 -c 2 -a 0 -i 2 -k MAC -R 100.000000
v -t 3.205488529 -e sim_annotation 3.205488529 30 node 0 receive vectorbasedforward 2 from 3
+ -t 3.330025000 -s 5 -d 0 -p vectorbasedforward -e 50 -c 2 -a 0 -i 4 -k MAC 
- -t 3.330025000 -s 5 -d 0 -p vectorbasedforward -e 50 -c 2 -a 0 -i 4 -k MAC
h -t 3.330025000 -s 5 -d 0 -p vectorbasedforward -e 50 -c 2 -a 0 -i 4 -k MAC -R 100.000000
v -t 3.330025000 -e sim_annotation 3.330025000 31 node 5 sendout packet (vectorbasedforward) 4
r -t 3.396691667 -s 4 -d 0 -p vectorbasedforward -e 50 -c 2 -a 0 -i 4 -k MAC -R 100.000000
v -t 3.396691667 -e sim_annotation 3.396691667 32 node 0 receive vectorbasedforward 4 from 4
+ -t 3.436500326 -s 4 -d 0 -p vectorbasedforward -e 50 -c 2 -a 0 -i 1 -k MAC 
- -t 3.436500326 -s 4 -d 0 -p vectorbasedforward -e 50 -c 2 -a 0 -i 1 -k MAC
h -t 3.436500326 -s 4 -d 0 -p vectorbasedforward -e 50 -c 2 -a 0 -i 1 -k MAC -R 100.000000
v -t 3.436500326 -e sim_annotation 3.436500326 33 node 4 sendout packet (vectorbasedforward) 1
r -t 3.436691667 -s 3 -d 0 -p vectorbasedforward -e 50 -c 2 -a 0 -i 4 -k MAC -R 100.000000
v -t 3.436691667 -e sim_annotation 3.436691667 34 node 0 receive vectorbasedforward 4 from 3
+ -t 3.436741667 -s 3 -d 0 -p vectorbasedforward -e 50 -c 2 -a 0 -i 4 -k MAC 
- -t 3.436741667 -s 3 -d 0 -p vectorbasedforward -e 50 -c 2 -a 0 -i 4 -k MAC
h -t 3.436741667 -s 3 -d 0 -p vectorbasedforward -e 50 -c 2 -a 0 -i 4 -k MAC -R 100.000000
v -t 3.436741667 -e sim_annotation 3.436741667 35 node 3 sendout packet (vectorbasedforward) 4
r -t 3.503166992 -s 5 -d 0 -p vectorbasedforward -e 50 -c 2 -a 0 -i 1 -k MAC -R 100.000000
v -t 3.503166992 -e sim_annotation 3.503166992 36 node 0 receive vectorbasedforward 1 from 5
r -t 3.516500326 -s 3 -d 0 -p vectorbasedforward -e 50 -c 2 -a 0 -i 1 -k MAC -R 100.000000
v -t 3.516500326 -e sim_annotation 3.516500326 37 node 0 receive vectorbasedforward 1 from 3
r -t 3.516741667 -s 4 -d 0 -p vectorbasedforward -e 50 -c 2 -a 0 -i 4 -k MAC -R 100.000000
v -t 3.516741667 -e sim_annotation 3.516741667 38 node 0 receive vectorbasedforward 4 from 4
r -t 3.516741667 -s 2 -d 0 -p vectorbasedforward -e 50 -c 2 -a 0 -i 4 -k MAC -R 100.000000
v -t 3.516741667 -e sim_annotation 3.516741667 39 node 0 receive vectorbasedforward 4 from 2
r -t 3.543408333 -s 5 -d 0 -p vectorbasedforward -e 50 -c 2 -a 0 -i 4 -k MAC -R 100.000000
v -t 3.543408333 -e sim_annotation 3.543408333 40 node 0 receive vectorbasedforward 4 from 5
r -t 3.543408333 -s 1 -d 0 -p vectorbasedforward -e 50 -c 2 -a 0 -i 4 -k MAC -R 100.000000
v -t 3.543408333 -e sim_annotation 3.543408333 41 node 0 receive vectorbasedforward 4 from 1
+ -t 3.543458333 -s 1 -d 0 -p vectorbasedforward -e 50 -c 2 -a 0 -i 4 -k MAC 
- -t 3.543458333 -s 1 -d 0 -p vectorbasedforward -e 50 -c 2 -a 0 -i 4 -k MAC
h -t 3.543458333 -s 1 -d 0 -p vectorbasedforward -e 50 -c 2 -a 0 -i 4 -k MAC -R 100.000000
v -t 3.543458333 -e sim_annotation 3.543458333 42 node 1 sendout packet (vectorbasedforward) 4
r -t 3.610125000 -s 2 -d 0 -p vectorbasedforward -e 50 -c 2 -a 0 -i 4 -k MAC -R 100.000000
v -t 3.610125000 -e sim_annotation 3.610125000 43 node 0 receive vectorbasedforward 4 from 2
r -t 3.623458333 -s 0 -d 0 -p vectorbasedforward -e 50 -c 2 -a 0 -i 4 -k MAC -R 100.000000
v -t 3.623458333 -e sim_annotation 3.623458333 44 node 0 receive vectorbasedforward 4 from 0
r -t 3.650125000 -s 3 -d 0 -p vectorbasedforward -e 50 -c 2 -a 0 -i 4 -k MAC -R 100.000000
v -t 3.650125000 -e sim_annotation 3.650125000 45 node 0 receive vectorbasedforward 4 from 3
+ -t 3.770994944 -s 5 -d 0 -p vectorbasedforward -e 50 -c 2 -a 0 -i 3 -k MAC 
- -t 3.770994944 -s 5 -d 0 -p vectorbasedforward -e 50 -c 2 -a 0 -i 3 -k MAC
h -t 3.770994944 -s 5 -d 0 -p vectorbasedforward -e 50 -c 2 -a 0 -i 3 -k MAC -R 100.000000
v -t 3.770994944 -e sim_annotation 3.770994944 46 node 5 sendout packet (vectorbasedforward) 3
r -t 3.837661611 -s 4 -d 0 -p vectorbasedforward -e 50 -c 2 -a 0 -i 3 -k MAC -R 100.000000
v -t 3.837661611 -e sim_annotation 3.837661611 47 node 0 receive vectorbasedforward 3 from 4
r -t 3.877661611 -s 3 -d 0 -p vectorbasedforward -e 50 -c 2 -a 0 -i 3 -k MAC -R 100.000000
v -t 3.877661611 -e sim_annotation 3.877661611 48 node 0 receive vectorbasedforward 3 from 3
+ -t 4.202580532 -s 2 -d 0 -p vectorbasedforward -e 50 -c 2 -a 0 -i 4 -k MAC 
- -t 4.202580532 -s 2 -d 0 -p vectorbasedforward -e 50 -c 2 -a 0 -i 4 -k MAC
h -t 4.202580532 -s 2 -d 0 -p vectorbasedforward -e 50 -c 2 -a 0 -i 4 -k MAC -R 100.000000
v -t 4.202580532 -e sim_annotation 4.202580532 49 node 2 sendout packet (vectorbasedforward) 4
+ -t 4.251338336 -s 4 -d 0 -p vectorbasedforward -e 50 -c 2 -a 0 -i 4 -k MAC 
- -t 4.251338336 -s 4 -d 0 -p vectorbasedforward -e 50 -c 2 -a 0 -i 4 -k MAC
h -t 4.251338336 -s 4 -d 0 -p vectorbasedforward -e 50 -c 2 -a 0 -i 4 -k MAC -R 100.000000
v -t 4.251338336 -e sim_annotation 4.251338336 50 node 4 sendout packet (vectorbasedforward) 4
r -t 4.269247199 -s 1 -d 0 -p vectorbasedforward -e 50 -c 2 -a 0 -i 4 -k MAC -R 100.000000
v -t 4.269247199 -e sim_annotation 4.269247199 51 node 0 receive vectorbasedforward 4 from 1
r -t 4.282580532 -s 3 -d 0 -p vectorbasedforward -e 50 -c 2 -a 0 -i 4 -k MAC -R 100.000000
v -t 4.282580532 -e sim_annotation 4.282580532 52 node 0 receive vectorbasedforward 4 from 3
r -t 4.309247199 -s 0 -d 0 -p vectorbasedforward -e 50 -c 2 -a 0 -i 4 -k MAC -R 100.000000
v -t 4.309247199 -e sim_annotation 4.309247199 53 node 0 receive vectorbasedforward 4 from 0
r -t 4.318005003 -s 5 -d 0 -p vectorbasedforward -e 50 -c 2 -a 0 -i 4 -k MAC -R 100.000000
v -t 4.318005003 -e sim_annotation 4.318005003 54 node 0 receive vectorbasedforward 4 from 5
r -t 4.331338336 -s 3 -d 0 -p vectorbasedforward -e 50 -c 2 -a 0 -i 4 -k MAC -R 100.000000
v -t 4.331338336 -e sim_annotation 4.331338336 55 node 0 receive vectorbasedforward 4 from 3
+ -t 11.330025000 -s 1 -d 0 -p vectorbasedforward -e 50 -c 2 -a 0 -i 5 -k MAC 
- -t 11.330025000 -s 1 -d 0 -p vectorbasedforward -e 50 -c 2 -a 0 -i 5 -k MAC
h -t 11.330025000 -s 1 -d 0 -p vectorbasedforward -e 50 -c 2 -a 0 -i 5 -k MAC -R 100.000000
v -t 11.330025000 -e sim_annotation 11.330025000 56 node 1 sendout packet (vectorbasedforward) 5
r -t 11.396691667 -s 2 -d 0 -p vectorbasedforward -e 50 -c 2 -a 0 -i 5 -k MAC -R 100.000000
v -t 11.396691667 -e sim_annotation 11.396691667 57 node 0 receive vectorbasedforward 5 from 2
r -t 11.410025000 -s 0 -d 0 -p vectorbasedforward -e 50 -c 2 -a 0 -i 5 -k MAC -R 100.000000
v -t 11.410025000 -e sim_annotation 11.410025000 58 node 0 receive vectorbasedforward 5 from 0
r -t 11.436691667 -s 3 -d 0 -p vectorbasedforward -e 50 -c 2 -a 0 -i 5 -k MAC -R 100.000000
v -t 11.436691667 -e sim_annotation 11.436691667 59 node 0 receive vectorbasedforward 5 from 3
+ -t 11.659748904 -s 3 -d 0 -p vectorbasedforward -e 50 -c 2 -a 0 -i 5 -k MAC 
- -t 11.659748904 -s 3 -d 0 -p vectorbasedforward -e 50 -c 2 -a 0 -i 5 -k MAC
h -t 11.659748904 -s 3 -d 0 -p vectorbasedforward -e 50 -c 2 -a 0 -i 5 -k MAC -R 100.000000
v -t 11.659748904 -e sim_annotation 11.659748904 60 node 3 sendout packet (vectorbasedforward) 5
r -t 11.739748904 -s 4 -d 0 -p vectorbasedforward -e 50 -c 2 -a 0 -i 5 -k MAC -R 100.000000
v -t 11.739748904 -e sim_annotation 11.739748904 61 node 0 receive vectorbasedforward 5 from 4
r -t 11.739748904 -s 2 -d 0 -p vectorbasedforward -e 50 -c 2 -a 0 -i 5 -k MAC -R 100.000000
v -t 11.739748904 -e sim_annotation 11.739748904 62 node 0 receive vectorbasedforward 5 from 2
r -t 11.766415571 -s 5 -d 0 -p vectorbasedforward -e 50 -c 2 -a 0 -i 5 -k MAC -R 100.000000
v -t 11.766415571 -e sim_annotation 11.766415571 63 node 0 receive vectorbasedforward 5 from 5
r -t 11.766415571 -s 1 -d 0 -p vectorbasedforward -e 50 -c 2 -a 0 -i 5 -k MAC -R 100.000000
v -t 11.766415571 -e sim_annotation 11.766415571 64 node 0 receive vectorbasedforward 5 from 1
+ -t 11.830025000 -s 2 -d 0 -p vectorbasedforward -e 50 -c 2 -a 0 -i 6 -k MAC 
- -t 11.830025000 -s 2 -d 0 -p vectorbasedforward -e 50 -c 2 -a 0 -i 6 -k MAC
h -t 11.830025000 -s 2 -d 0 -p vectorbasedforward -e 50 -c 2 -a 0 -i 6 -k MAC -R 100.000000
v -t 11.830025000 -e sim_annotation 11.830025000 65 node 2 sendout packet (vectorbasedforward) 6
r -t 11.896691667 -s 1 -d 0 -p vectorbasedforward -e 50 -c 2 -a 0 -i 6 -k MAC -R 100.000000
v -t 11.896691667 -e sim_annotation 11.896691667 66 node 0 receive vectorbasedforward 6 from 1
r -t 11.910025000 -s 3 -d 0 -p vectorbasedforward -e 50 -c 2 -a 0 -i 6 -k MAC -R 100.000000
v -t 11.910025000 -e sim_annotation 11.910025000 67 node 0 receive vectorbasedforward 6 from 3
r -t 11.936691667 -s 0 -d 0 -p vectorbasedforward -e 50 -c 2 -a 0 -i 6 -k MAC -R 100.000000
v -t 11.936691667 -e sim_annotation 11.936691667 68 node 0 receive vectorbasedforward 6 from 0
+ -t 12.081154521 -s 5 -d 0 -p vectorbasedforward -e 50 -c 2 -a 0 -i 5 -k MAC 
- -t 12.081154521 -s 5 -d 0 -p vectorbasedforward -e 50 -c 2 -a 0 -i 5 -k MAC
h -t 12.081154521 -s 5 -d 0 -p vectorbasedforward -e 50 -c 2 -a 0 -i 5 -k MAC -R 100.000000
v -t 12.081154521 -e sim_annotation 12.081154521 69 node 5 sendout packet (vectorbasedforward) 5
r -t 12.147821188 -s 4 -d 0 -p vectorbasedforward -e 50 -c 2 -a 0 -i 5 -k MAC -R 100.000000
v -t 12.147821188 -e sim_annotation 12.147821188 70 node 0 receive vectorbasedforward 5 from 4
r -t 12.187821188 -s 3 -d 0 -p vectorbasedforward -e 50 -c 2 -a 0 -i 5 -k MAC -R 100.000000
v -t 12.187821188 -e sim_annotation 12.187821188 71 node 0 receive vectorbasedforward 5 from 3
+ -t 12.264074437 -s 2 -d 0 -p vectorbasedforward -e 50 -c 2 -a 0 -i 5 -k MAC 
- -t 12.264074437 -s 2 -d 0 -p vectorbasedforward -e 50 -c 2 -a 0 -i 5 -k MAC
h -t 12.264074437 -s 2 -d 0 -p vectorbasedforward -e 50 -c 2 -a 0 -i 5 -k MAC -R 100.000000
v -t 12.264074437 -e sim_annotation 12.264074437 72 node 2 sendout packet (vectorbasedforward) 5
r -t 12.330741104 -s 1 -d 0 -p vectorbasedforward -e 50 -c 2 -a 0 -i 5 -k MAC -R 100.000000
v -t 12.330741104 -e sim_annotation 12.330741104 73 node 0 receive vectorbasedforward 5 from 1
r -t 12.344074437 -s 3 -d 0 -p vectorbasedforward -e 50 -c 2 -a 0 -i 5 -k MAC -R 100.000000
v -t 12.344074437 -e sim_annotation 12.344074437 74 node 0 receive vectorbasedforward 5 from 3
r -t 12.370741104 -s 0 -d 0 -p vectorbasedforward -e 50 -c 2 -a 0 -i 5 -k MAC -R 100.000000
v -t 12.370741104 -e sim_annotation 12.370741104 75 node 0 receive vectorbasedforward 5 from 0
+ -t 12.410481435 -s 3 -d 0 -p vectorbasedforward -e 50 -c 2 -a 0 -i 7 -k MAC 
- -t 12.410481435 -s 3 -d 0 -p vectorbasedforward -e 50 -c 2 -a 0 -i 7 -k MAC
h -t 12.410481435 -s 3 -d 0 -p vectorbasedforward -e 50 -c 2 -a 0 -i 7 -k MAC -R 100.000000
v -t 12.410481435 -e sim_annotation 12.410481435 76 node 3 sendout packet (vectorbasedforward) 7
r -t 12.490481435 -s 4 -d 0 -p vectorbasedforward -e 50 -c 2 -a 0 -i 7 -k MAC -R 100.000000
v -t 12.490481435 -e sim_annotation 12.490481435 77 node 0 receive vectorbasedforward 7 from 4
r -t 12.490481435 -s 2 -d 0 -p vectorbasedforward -e 50 -c 2 -a 0 -i 7 -k MAC -R 100.000000
v -t 12.490481435 -e sim_annotation 12.490481435 78 node 0 receive vectorbasedforward 7 from 2
r -t 12.517148102 -s 5 -d 0 -p vectorbasedforward -e 50 -c 2 -a 0 -i 7 -k MAC -R 100.000000
v -t 12.517148102 -e sim_annotation 12.517148102 79 node 0 receive vectorbasedforward 7 from 5
r -t 12.517148102 -s 1 -d 0 -p vectorbasedforward -e 50 -c 2 -a 0 -i 7 -k MAC -R 100.000000
v -t 12.517148102 -e sim_annotation 12.517148102 80 node 0 receive vectorbasedforward 7 from 1
+ -t 12.523850163 -s 4 -d 0 -p vectorbasedforward -e 50 -c 2 -a 0 -i 5 -k MAC 
- -t 12.523850163 -s 4 -d 0 -p vectorbasedforward -e 50 -c 2 -a 0 -i 5 -k MAC
h -t 12.523850163 -s 4 -d 0 -p vectorbasedforward -e 50 -c 2 -a 0 -i 5 -k MAC -R 100.000000
v -t 12.523850163 -e sim_annotation 12.523850163 81 node 4 sendout packet (vectorbasedforward) 5
r -t 12.590516830 -s 5 -d 0 -p vectorbasedforward -e 50 -c 2 -a 0 -i 5 -k MAC -R 100.000000
v -t 12.590516830 -e sim_annotation 12.590516830 82 node 0 receive vectorbasedforward 5 from 5
r -t 12.603850163 -s 3 -d 0 -p vectorbasedforward -e 50 -c 2 -a 0 -i 5 -k MAC -R 100.000000
v -t 12.603850163 -e sim_annotation 12.603850163 83 node 0 receive vectorbasedforward 5 from 3
+ -t 12.621243563 -s 3 -d 0 -p vectorbasedforward -e 50 -c 2 -a 0 -i 6 -k MAC 
- -t 12.621243563 -s 3 -d 0 -p vectorbasedforward -e 50 -c 2 -a 0 -i 6 -k MAC
h -t 12.621243563 -s 3 -d 0 -p vectorbasedforward -e 50 -c 2 -a 0 -i 6 -k MAC -R 100.000000
v -t 12.621243563 -e sim_annotation 12.621243563 84 node 3 sendout packet (vectorbasedforward) 6
r -t 12.701243563 -s 4 -d 0 -p vectorbasedforward -e 50 -c 2 -a 0 -i 6 -k MAC -R 100.000000
v -t 12.701243563 -e sim_annotation 12.701243563 85 node 0 receive vectorbasedforward 6 from 4
r -t 12.701243563 -s 2 -d 0 -p vectorbasedforward -e 50 -c 2 -a 0 -i 6 -k MAC -R 100.000000
v -t 12.701243563 -e sim_annotation 12.701243563 86 node 0 receive vectorbasedforward 6 from 2
r -t 12.727910229 -s 5 -d 0 -p vectorbasedforward -e 50 -c 2 -a 0 -i 6 -k MAC -R 100.000000
v -t 12.727910229 -e sim_annotation 12.727910229 87 node 0 receive vectorbasedforward 6 from 5
r -t 12.727910229 -s 1 -d 0 -p vectorbasedforward -e 50 -c 2 -a 0 -i 6 -k MAC -R 100.000000
v -t 12.727910229 -e sim_annotation 12.727910229 88 node 0 receive vectorbasedforward 6 from 1
+ -t 12.770016172 -s 5 -d 0 -p vectorbasedforward -e 50 -c 2 -a 0 -i 7 -k MAC 
- -t 12.770016172 -s 5 -d 0 -p vectorbasedforward -e 50 -c 2 -a 0 -i 7 -k MAC
h -t 12.770016172 -s 5 -d 0 -p vectorbasedforward -e 50 -c 2 -a 0 -i 7 -k MAC -R 100.000000
v -t 12.770016172 -e sim_annotation 12.770016172 89 node 5 sendout packet (vectorbasedforward) 7
r -t 12.836682839 -s 4 -d 0 -p vectorbasedforward -e 50 -c 2 -a 0 -i 7 -k MAC -R 100.000000
v -t 12.836682839 -e sim_annotation 12.836682839 90 node 0 receive vectorbasedforward 7 from 4
+ -t 12.867258302 -s 4 -d 0 -p vectorbasedforward -e 50 -c 2 -a 0 -i 8 -k MAC 
- -t 12.867258302 -s 4 -d 0 -p vectorbasedforward -e 50 -c 2 -a 0 -i 8 -k MAC
h -t 12.867258302 -s 4 -d 0 -p vectorbasedforward -e 50 -c 2 -a 0 -i 8 -k MAC -R 100.000000
v -t 12.867258302 -e sim_annotation 12.867258302 91 node 4 sendout packet (vectorbasedforward) 8
r -t 12.876682839 -s 3 -d 0 -p vectorbasedforward -e 50 -c 2 -a 0 -i 7 -k MAC -R 100.000000
v -t 12.876682839 -e sim_annotation 12.876682839 92 node 0 receive vectorbasedforward 7 from 3
r -t 12.933924969 -s 5 -d 0 -p vectorbasedforward -e 50 -c 2 -a 0 -i 8 -k MAC -R 100.000000
v -t 12.933924969 -e sim_annotation 12.933924969 93 node 0 receive vectorbasedforward 8 from 5
r -t 12.947258302 -s 3 -d 0 -p vectorbasedforward -e 50 -c 2 -a 0 -i 8 -k MAC -R 100.000000
v -t 12.947258302 -e sim_annotation 12.947258302 94 node 0 receive vectorbasedforward 8 from 3
+ -t 13.022895005 -s 5 -d 0 -p vectorbasedforward -e 50 -c 2 -a 0 -i 6 -k MAC 
- -t 13.022895005 -s 5 -d 0 -p vectorbasedforward -e 50 -c 2 -a 0 -i 6 -k MAC
h -t 13.022895005 -s 5 -d 0 -p vectorbasedforward -e 50 -c 2 -a 0 -i 6 -k MAC -R 100.000000
v -t 13.022895005 -e sim_annotation 13.022895005 95 node 5 sendout packet (vectorbasedforward) 6
r -t 13.089561671 -s 4 -d 0 -p vectorbasedforward -e 50 -c 2 -a 0 -i 6 -k MAC -R 100.000000
v -t 13.089561671 -e sim_annotation 13.089561671 96 node 0 receive vectorbasedforward 6 from 4
r -t 13.129561671 -s 3 -d 0 -p vectorbasedforward -e 50 -c 2 -a 0 -i 6 -k MAC -R 100.000000
v -t 13.129561671 -e sim_annotation 13.129561671 97 node 0 receive vectorbasedforward 6 from 3
+ -t 13.205944964 -s 4 -d 0 -p vectorbasedforward -e 50 -c 2 -a 0 -i 7 -k MAC 
- -t 13.205944964 -s 4 -d 0 -p vectorbasedforward -e 50 -c 2 -a 0 -i 7 -k MAC
h -t 13.205944964 -s 4 -d 0 -p vectorbasedforward -e 50 -c 2 -a 0 -i 7 -k MAC -R 100.000000
v -t 13.205944964 -e sim_annotation 13.205944964 98 node 4 sendout packet (vectorbasedforward) 7
r -t 13.272611631 -s 5 -d 0 -p vectorbasedforward -e 50 -c 2 -a 0 -i 7 -k MAC -R 100.000000
v -t 13.272611631 -e sim_annotation 13.272611631 99 node 0 receive vectorbasedforward 7 from 5
r -t 13.285944964 -s 3 -d 0 -p vectorbasedforward -e 50 -c 2 -a 0 -i 7 -k MAC -R 100.000000
v -t 13.285944964 -e sim_annotation 13.285944964 100 node 0 receive vectorbasedforward 7 from 3
+ -t 13.330025000 -s 5 -d 0 -p vectorbasedforward -e 50 -c 2 -a 0 -i 9 -k MAC 
- -t 13.330025000 -s 5 -d 0 -p vectorbasedforward -e 50 -c 2 -a 0 -i 9 -k MAC
h -t 13.330025000 -s 5 -d 0 -p vectorbasedforward -e 50 -c 2 -a 0 -i 9 -k MAC -R 100.000000
v -t 13.330025000 -e sim_annotation 13.330025000 101 node 5 sendout packet (vectorbasedforward) 9
r -t 13.396691667 -s 4 -d 0 -p vectorbasedforward -e 50 -c 2 -a 0 -i 9 -k MAC -R 100.000000
v -t 13.396691667 -e sim_annotation 13.396691667 102 node 0 receive vectorbasedforward 9 from 4
+ -t 13.436500326 -s 4 -d 0 -p vectorbasedforward -e 50 -c 2 -a 0 -i 6 -k MAC 
- -t 13.436500326 -s 4 -d 0 -p vectorbasedforward -e 50 -c 2 -a 0 -i 6 -k MAC
h -t 13.436500326 -s 4 -d 0 -p vectorbasedforward -e 50 -c 2 -a 0 -i 6 -k MAC -R 100.000000
v -t 13.436500326 -e sim_annotation 13.436500326 103 node 4 sendout packet (vectorbasedforward) 6
r -t 13.436691667 -s 3 -d 0 -p vectorbasedforward -e 50 -c 2 -a 0 -i 9 -k MAC -R 100.000000
v -t 13.436691667 -e sim_annotation 13.436691667 104 node 0 receive vectorbasedforward 9 from 3
+ -t 13.436741667 -s 3 -d 0 -p vectorbasedforward -e 50 -c 2 -a 0 -i 9 -k MAC 
- -t 13.436741667 -s 3 -d 0 -p vectorbasedforward -e 50 -c 2 -a 0 -i 9 -k MAC
h -t 13.436741667 -s 3 -d 0 -p vectorbasedforward -e 50 -c 2 -a 0 -i 9 -k MAC -R 100.000000
v -t 13.436741667 -e sim_annotation 13.436741667 105 node 3 sendout packet (vectorbasedforward) 9
r -t 13.503166992 -s 5 -d 0 -p vectorbasedforward -e 50 -c 2 -a 0 -i 6 -k MAC -R 100.000000
v -t 13.503166992 -e sim_annotation 13.503166992 106 node 0 receive vectorbasedforward 6 from 5
r -t 13.516500326 -s 3 -d 0 -p vectorbasedforward -e 50 -c 2 -a 0 -i 6 -k MAC -R 100.000000
v -t 13.516500326 -e sim_annotation 13.516500326 107 node 0 receive vectorbasedforward 6 from 3
r -t 13.516741667 -s 4 -d 0 -p vectorbasedforward -e 50 -c 2 -a 0 -i 9 -k MAC -R 100.000000
v -t 13.516741667 -e sim_annotation 13.516741667 108 node 0 receive vectorbasedforward 9 from 4
r -t 13.516741667 -s 2 -d 0 -p vectorbasedforward -e 50 -c 2 -a 0 -i 9 -k MAC -R 100.000000
v -t 13.516741667 -e sim_annotation 13.516741667 109 node 0 receive vectorbasedforward 9 from 2
r -t 13.543408333 -s 5 -d 0 -p vectorbasedforward -e 50 -c 2 -a 0 -i 9 -k MAC -R 100.000000
v -t 13.543408333 -e sim_annotation 13.543408333 110 node 0 receive vectorbasedforward 9 from 5
r -t 13.543408333 -s 1 -d 0 -p vectorbasedforward -e 50 -c 2 -a 0 -i 9 -k MAC -R 100.000000
v -t 13.543408333 -e sim_annotation 13.543408333 111 node 0 receive vectorbasedforward 9 from 1
+ -t 13.543458333 -s 1 -d 0 -p vectorbasedforward -e 50 -c 2 -a 0 -i 9 -k MAC 
- -t 13.543458333 -s 1 -d 0 -p vectorbasedforward -e 50 -c 2 -a 0 -i 9 -k MAC
h -t 13.543458333 -s 1 -d 0 -p vectorbasedforward -e 50 -c 2 -a 0 -i 9 -k MAC -R 100.000000
v -t 13.543458333 -e sim_annotation 13.543458333 112 node 1 sendout packet (vectorbasedforward) 9
r -t 13.610125000 -s 2 -d 0 -p vectorbasedforward -e 50 -c 2 -a 0 -i 9 -k MAC -R 100.000000
v -t 13.610125000 -e sim_annotation 13.610125000 113 node 0 receive vectorbasedforward 9 from 2
r -t 13.623458333 -s 0 -d 0 -p vectorbasedforward -e 50 -c 2 -a 0 -i 9 -k MAC -R 100.000000
v -t 13.623458333 -e sim_annotation 13.623458333 114 node 0 receive vectorbasedforward 9 from 0
r -t 13.650125000 -s 3 -d 0 -p vectorbasedforward -e 50 -c 2 -a 0 -i 9 -k MAC -R 100.000000
v -t 13.650125000 -e sim_annotation 13.650125000 115 node 0 receive vectorbasedforward 9 from 3
+ -t 13.808228246 -s 5 -d 0 -p vectorbasedforward -e 50 -c 2 -a 0 -i 8 -k MAC 
- -t 13.808228246 -s 5 -d 0 -p vectorbasedforward -e 50 -c 2 -a 0 -i 8 -k MAC
h -t 13.808228246 -s 5 -d 0 -p vectorbasedforward -e 50 -c 2 -a 0 -i 8 -k MAC -R 100.000000
v -t 13.808228246 -e sim_annotation 13.808228246 116 node 5 sendout packet (vectorbasedforward) 8
r -t 13.874894913 -s 4 -d 0 -p vectorbasedforward -e 50 -c 2 -a 0 -i 8 -k MAC -R 100.000000
v -t 13.874894913 -e sim_annotation 13.874894913 117 node 0 receive vectorbasedforward 8 from 4
r -t 13.914894913 -s 3 -d 0 -p vectorbasedforward -e 50 -c 2 -a 0 -i 8 -k MAC -R 100.000000
v -t 13.914894913 -e sim_annotation 13.914894913 118 node 0 receive vectorbasedforward 8 from 3
+ -t 14.202580532 -s 2 -d 0 -p vectorbasedforward -e 50 -c 2 -a 0 -i 9 -k MAC 
- -t 14.202580532 -s 2 -d 0 -p vectorbasedforward -e 50 -c 2 -a 0 -i 9 -k MAC
h -t 14.202580532 -s 2 -d 0 -p vectorbasedforward -e 50 -c 2 -a 0 -i 9 -k MAC -R 100.000000
v -t 14.202580532 -e sim_annotation 14.202580532 119 node 2 sendout packet (vectorbasedforward) 9
+ -t 14.251338336 -s 4 -d 0 -p vectorbasedforward -e 50 -c 2 -a 0 -i 9 -k MAC 
- -t 14.251338336 -s 4 -d 0 -p vectorbasedforward -e 50 -c 2 -a 0 -i 9 -k MAC
h -t 14.251338336 -s 4 -d 0 -p vectorbasedforward -e 50 -c 2 -a 0 -i 9 -k MAC -R 100.000000
v -t 14.251338336 -e sim_annotation 14.251338336 120 node 4 sendout packet (vectorbasedforward) 9
r -t 14.269247199 -s 1 -d 0 -p vectorbasedforward -e 50 -c 2 -a 0 -i 9 -k MAC -R 100.000000
v -t 14.269247199 -e sim_annotation 14.269247199 121 node 0 receive vectorbasedforward 9 from 1
r -t 14.282580532 -s 3 -d 0 -p vectorbasedforward -e 50 -c 2 -a 0 -i 9 -k MAC -R 100.000000
v -t 14.282580532 -e sim_annotation 14.282580532 122 node 0 receive vectorbasedforward 9 from 3
r -t 14.309247199 -s 0 -d 0 -p vectorbasedforward -e 50 -c 2 -a 0 -i 9 -k MAC -R 100.000000
v -t 14.309247199 -e sim_annotation 14.309247199 123 node 0 receive vectorbasedforward 9 from 0
r -t 14.318005003 -s 5 -d 0 -p vectorbasedforward -e 50 -c 2 -a 0 -i 9 -k MAC -R 100.000000
v -t 14.318005003 -e sim_annotation 14.318005003 124 node 0 receive vectorbasedforward 9 from 5
r -t 14.331338336 -s 3 -d 0 -p vectorbasedforward -e 50 -c 2 -a 0 -i 9 -k MAC -R 100.000000
v -t 14.331338336 -e sim_annotation 14.331338336 125 node 0 receive vectorbasedforward 9 from 3
+ -t 21.330025000 -s 1 -d 0 -p vectorbasedforward -e 50 -c 2 -a 0 -i 10 -k MAC 
- -t 21.330025000 -s 1 -d 0 -p vectorbasedforward -e 50 -c 2 -a 0 -i 10 -k MAC
h -t 21.330025000 -s 1 -d 0 -p vectorbasedforward -e 50 -c 2 -a 0 -i 10 -k MAC -R 100.000000
v -t 21.330025000 -e sim_annotation 21.330025000 126 node 1 sendout packet (vectorbasedforward) 10
r -t 21.396691667 -s 2 -d 0 -p vectorbasedforward -e 50 -c 2 -a 0 -i 10 -k MAC -R 100.000000
v -t 21.396691667 -e sim_annotation 21.396691667 127 node 0 receive vectorbasedforward 10 from 2
r -t 21.410025000 -s 0 -d 0 -p vectorbasedforward -e 50 -c 2 -a 0 -i 10 -k MAC -R 100.000000
v -t 21.410025000 -e sim_annotation 21.410025000 128 node 0 receive vectorbasedforward 10 from 0
r -t 21.436691667 -s 3 -d 0 -p vectorbasedforward -e 50 -c 2 -a 0 -i 10 -k MAC -R 100.000000
v -t 21.436691667 -e sim_annotation 21.436691667 129 node 0 receive vectorbasedforward 10 from 3