vectorbased
M 0.0 nn 4 x 100 y 100 z 100
M 0.0 prop Propagation/UnderwaterPropagation ant Antenna/OmniAntenna
N -t 1.000000 -n 0 -e 9999.999900
N -t 1.000000 -n 1 -e 9999.999900
N -t 1.000000 -n 2 -e 9999.999900
N -t 1.000000 -n 3 -e 9999.999900
M 1.20000 3 (-20.00, 10.00, 0.00), (32.36, 32.07), 19.37
M 1.40000 3 (-16.43, 11.50, 0.00), (32.36, 32.07), 19.37
M 1.60000 3 (-12.86, 13.01, 0.00), (32.36, 32.07), 19.37
M 1.80000 3 (-9.29, 14.51, 0.00), (32.36, 32.07), 19.37
M 2.00000 3 (-5.72, 16.02, 0.00), (32.36, 32.07), 19.37
N -t 2.000000 -n 0 -e 9999.999800
N -t 2.000000 -n 1 -e 9999.999800
N -t 2.000000 -n 2 -e 9999.999800
N -t 2.000000 -n 3 -e 9999.999800
M 2.20000 3 (-2.15, 17.52, 0.00), (32.36, 32.07), 19.37
s -t 2.264300000 -Hs 3 -Hd -2 -Ni 3 -Nx -1.00 -Ny 18.01 -Nz 0.00 -Ne 9999.999800 -Nl MAC -Nw --- -Ma 0 -Md 3000000 -Ms ffff0000 -Mt 0 -Is 0.0 -Id 0.0 -It Slotted-FAMA -Il 11 -If 0 -Ii 0 -Iv 0 -P SFAMA -Pt RTS
s -t 2.264300000 -Hs 2 -Hd -2 -Ni 2 -Nx 20.00 -Ny 10.00 -Nz 0.00 -Ne 9999.999800 -Nl MAC -Nw --- -Ma 0 -Md 2000000 -Ms ffff0000 -Mt 0 -Is 0.0 -Id 0.0 -It Slotted-FAMA -Il 11 -If 0 -Ii 0 -Iv 0 -P SFAMA -Pt RTS
M 2.40000 3 (1.42, 19.03, 0.00), (32.36, 32.07), 19.37
M 2.60000 3 (4.99, 20.53, 0.00), (32.36, 32.07), 19.37
M 2.80000 3 (8.56, 22.04, 0.00), (32.36, 32.07), 19.37
N -t 3.000000 -n 0 -e 9999.997365
N -t 3.000000 -n 1 -e 9999.999700
N -t 3.000000 -n 2 -e 9999.989142
N -t 3.000000 -n 3 -e 9999.989142
M 3.00000 3 (12.13, 23.54, 0.00), (32.36, 32.07), 19.37
M 3.20000 3 (15.70, 25.05, 0.00), (32.36, 32.07), 19.37
M 3.40000 3 (19.27, 26.55, 0.00), (32.36, 32.07), 19.37
M 3.60000 3 (22.84, 28.06, 0.00), (32.36, 32.07), 19.37
M 3.80000 3 (26.41, 29.56, 0.00), (32.36, 32.07), 19.37
N -t 4.000000 -n 0 -e 9999.997265
N -t 4.000000 -n 1 -e 9999.999600
N -t 4.000000 -n 2 -e 9999.989042
N -t 4.000000 -n 3 -e 9999.989042
M 4.00000 3 (29.98, 31.07, 0.00), (32.36, 32.07), 19.37
M 4.20000 3 (32.36, 32.07, 0.00), (73.35, 99.37), 15.55
M 4.40000 3 (33.98, 34.73, 0.00), (73.35, 99.37), 15.55
M 4.60000 3 (35.60, 37.39, 0.00), (73.35, 99.37), 15.55
s -t 4.604076667 -Hs 2 -Hd -2 -Ni 2 -Nx 20.00 -Ny 10.00 -Nz 0.00 -Ne 9999.989042 -Nl MAC -Nw --- -Ma 0 -Md 2000000 -Ms ffff0000 -Mt 0 -Is 0.0 -Id 0.0 -It Slotted-FAMA -Il 11 -If 0 -Ii 0 -Iv 0 -P SFAMA -Pt RTS
M 4.80000 3 (37.22, 40.04, 0.00), (73.35, 99.37), 15.55
N -t 5.000000 -n 0 -e 9999.995405
N -t 5.000000 -n 1 -e 9999.999500
N -t 5.000000 -n 2 -e 9999.980143
N -t 5.000000 -n 3 -e 9999.987183
M 5.00000 3 (38.83, 42.70, 0.00), (73.35, 99.37), 15.55
s -t 5.132413333 -Hs 2 -Hd -2 -Ni 2 -Nx 20.00 -Ny 10.00 -Nz 0.00 -Ne 9999.980143 -Nl MAC -Nw --- -Ma 0 -Md 2000000 -Ms ffff0000 -Mt 0 -Is 0.0 -Id 0.0 -It Slotted-FAMA -Il 11 -If 0 -Ii 0 -Iv 0 -P SFAMA -Pt RTS
M 5.20000 3 (40.45, 45.35, 0.00), (73.35, 99.37), 15.55
M 5.40000 3 (42.07, 48.01, 0.00), (73.35, 99.37), 15.55
s -t 5.509796667 -Hs 2 -Hd -2 -Ni 2 -Nx 20.00 -Ny 10.00 -Nz 0.00 -Ne 9999.971329 -Nl MAC -Nw --- -Ma 0 -Md 2000000 -Ms ffff0000 -Mt 0 -Is 0.0 -Id 0.0 -It Slotted-FAMA -Il 11 -If 0 -Ii 0 -Iv 0 -P SFAMA -Pt RTS
M 5.60000 3 (43.69, 50.67, 0.00), (73.35, 99.37), 15.55
M 5.80000 3 (45.30, 53.32, 0.00), (73.35, 99.37), 15.55
N -t 6.000000 -n 0 -e 9999.991787
N -t 6.000000 -n 1 -e 9999.999400
N -t 6.000000 -n 2 -e 9999.962444
N -t 6.000000 -n 3 -e 9999.983564
M 6.00000 3 (46.92, 55.98, 0.00), (73.35, 99.37), 15.55
s -t 6.189086667 -Hs 2 -Hd -2 -Ni 2 -Nx 20.00 -Ny 10.00 -Nz 0.00 -Ne 9999.962444 -Nl MAC -Nw --- -Ma 0 -Md 2000000 -Ms ffff0000 -Mt 0 -Is 0.0 -Id 0.0 -It Slotted-FAMA -Il 11 -If 0 -Ii 0 -Iv 0 -P SFAMA -Pt RTS
M 6.20000 3 (48.54, 58.63, 0.00), (73.35, 99.37), 15.55
M 6.40000 3 (50.16, 61.29, 0.00), (73.35, 99.37), 15.55
M 6.60000 3 (51.77, 63.95, 0.00), (73.35, 99.37), 15.55
s -t 6.641946667 -Hs 2 -Hd -2 -Ni 2 -Nx 20.00 -Ny 10.00 -Nz 0.00 -Ne 9999.953625 -Nl MAC -Nw --- -Ma 0 -Md 2000000 -Ms ffff0000 -Mt 0 -Is 0.0 -Id 0.0 -It Slotted-FAMA -Il 11 -If 0 -Ii 0 -Iv 0 -P SFAMA -Pt RTS
M 6.80000 3 (53.39, 66.60, 0.00), (73.35, 99.37), 15.55
N -t 7.000000 -n 0 -e 9999.988169
N -t 7.000000 -n 1 -e 9999.999300
N -t 7.000000 -n 2 -e 9999.944746
N -t 7.000000 -n 3 -e 9999.979946
M 7.00000 3 (55.01, 69.26, 0.00), (73.35, 99.37), 15.55
M 7.20000 3 (56.63, 71.91, 0.00), (73.35, 99.37), 15.55
s -t 7.396713333 -Hs 2 -Hd -2 -Ni 2 -Nx 20.00 -Ny 10.00 -Nz 0.00 -Ne 9999.944746 -Nl MAC -Nw --- -Ma 0 -Md 2000000 -Ms ffff0000 -Mt 0 -Is 0.0 -Id 0.0 -It Slotted-FAMA -Il 11 -If 0 -Ii 0 -Iv 0 -P SFAMA -Pt RTS
M 7.40000 3 (58.25, 74.57, 0.00), (73.35, 99.37), 15.55
M 7.60000 3 (59.86, 77.23, 0.00), (73.35, 99.37), 15.55
M 7.80000 3 (61.48, 79.88, 0.00), (73.35, 99.37), 15.55
s -t 7.849573333 -Hs 2 -Hd -2 -Ni 2 -Nx 20.00 -Ny 10.00 -Nz 0.00 -Ne 9999.935906 -Nl MAC -Nw --- -Ma 0 -Md 2000000 -Ms ffff0000 -Mt 0 -Is 0.0 -Id 0.0 -It Slotted-FAMA -Il 11 -If 0 -Ii 0 -Iv 0 -P SFAMA -Pt RTS
N -t 8.000000 -n 0 -e 9999.984551
N -t 8.000000 -n 1 -e 9999.999200
N -t 8.000000 -n 2 -e 9999.927048
N -t 8.000000 -n 3 -e 9999.976328
M 8.00000 3 (63.10, 82.54, 0.00), (73.35, 99.37), 15.55
M 8.20000 3 (64.72, 85.19, 0.00), (73.35, 99.37), 15.55
s -t 8.302433333 -Hs 2 -Hd -2 -Ni 2 -Nx 20.00 -Ny 10.00 -Nz 0.00 -Ne 9999.927048 -Nl MAC -Nw --- -Ma 0 -Md 2000000 -Ms ffff0000 -Mt 0 -Is 0.0 -Id 0.0 -It Slotted-FAMA -Il 11 -If 0 -Ii 0 -Iv 0 -P SFAMA -Pt RTS
M 8.40000 3 (66.33, 87.85, 0.00), (73.35, 99.37), 15.55
M 8.60000 3 (67.95, 90.51, 0.00), (73.35, 99.37), 15.55
M 8.80000 3 (69.57, 93.16, 0.00), (73.35, 99.37), 15.55
s -t 8.830770000 -Hs 2 -Hd -2 -Ni 2 -Nx 20.00 -Ny 10.00 -Nz 0.00 -Ne 9999.918218 -Nl MAC -Nw --- -Ma 0 -Md 2000000 -Ms ffff0000 -Mt 0 -Is 0.0 -Id 0.0 -It Slotted-FAMA -Il 11 -If 0 -Ii 0 -Iv 0 -P SFAMA -Pt RTS
N -t 9.000000 -n 0 -e 9999.980933
N -t 9.000000 -n 1 -e 9999.999100
N -t 9.000000 -n 2 -e 9999.909350
N -t 9.000000 -n 3 -e 9999.972710
M 9.00000 3 (71.19, 95.82, 0.00), (73.35, 99.37), 15.55
M 9.20000 3 (72.80, 98.47, 0.00), (73.35, 99.37), 15.55
s -t 9.283630000 -Hs 2 -Hd -2 -Ni 2 -Nx 20.00 -Ny 10.00 -Nz 0.00 -Ne 9999.909350 -Nl MAC -Nw --- -Ma 0 -Md 2000000 -Ms ffff0000 -Mt 0 -Is 0.0 -Id 0.0 -It Slotted-FAMA -Il 11 -If 0 -Ii 0 -Iv 0 -P SFAMA -Pt RTS
M 9.40000 3 (73.35, 99.37, 0.00), (55.55, 66.71), 16.40
M 9.60000 3 (71.78, 96.49, 0.00), (55.55, 66.71), 16.40
M 9.80000 3 (70.21, 93.61, 0.00), (55.55, 66.71), 16.40
s -t 9.811966667 -Hs 2 -Hd -2 -Ni 2 -Nx 20.00 -Ny 10.00 -Nz 0.00 -Ne 9999.900521 -Nl MAC -Nw --- -Ma 0 -Md 2000000 -Ms ffff0000 -Mt 0 -Is 0.0 -Id 0.0 -It Slotted-FAMA -Il 11 -If 0 -Ii 0 -Iv 0 -P SFAMA -Pt RTS
M 10.00000 3 (68.64, 90.73, 0.00), (55.55, 66.71), 16.40
N -t 10.000000 -n 0 -e 9999.977314
N -t 10.000000 -n 1 -e 9999.999000
N -t 10.000000 -n 2 -e 9999.891651
N -t 10.000000 -n 3 -e 9999.970851
M 10.20000 3 (67.07, 87.85, 0.00), (55.55, 66.71), 16.40
s -t 10.340303333 -Hs 2 -Hd -2 -Ni 2 -Nx 20.00 -Ny 10.00 -Nz 0.00 -Ne 9999.891651 -Nl MAC -Nw --- -Ma 0 -Md 2000000 -Ms ffff0000 -Mt 0 -Is 0.0 -Id 0.0 -It Slotted-FAMA -Il 11 -If 0 -Ii 0 -Iv 0 -P SFAMA -Pt RTS
M 10.40000 3 (65.50, 84.97, 0.00), (55.55, 66.71), 16.40
M 10.60000 3 (63.93, 82.09, 0.00), (55.55, 66.71), 16.40
M 10.80000 3 (62.36, 79.21, 0.00), (55.55, 66.71), 16.40
s -t 10.944116667 -Hs 2 -Hd -2 -Ni 2 -Nx 20.00 -Ny 10.00 -Nz 0.00 -Ne 9999.882817 -Nl MAC -Nw --- -Ma 0 -Md 2000000 -Ms ffff0000 -Mt 0 -Is 0.0 -Id 0.0 -It Slotted-FAMA -Il 11 -If 0 -Ii 0 -Iv 0 -P SFAMA -Pt RTS
M 11.00000 3 (60.79, 76.33, 0.00), (55.55, 66.71), 16.40
N -t 11.000000 -n 0 -e 9999.973696
N -t 11.000000 -n 1 -e 9999.998900
N -t 11.000000 -n 2 -e 9999.873953
N -t 11.000000 -n 3 -e 9999.967232
M 11.20000 3 (59.22, 73.45, 0.00), (55.55, 66.71), 16.40
M 11.40000 3 (57.65, 70.57, 0.00), (55.55, 66.71), 16.40
M 11.60000 3 (56.08, 67.69, 0.00), (55.55, 66.71), 16.40
s -t 11.623406667 -Hs 2 -Hd -2 -Ni 2 -Nx 20.00 -Ny 10.00 -Nz 0.00 -Ne 9999.873953 -Nl MAC -Nw --- -Ma 0 -Md 2000000 -Ms ffff0000 -Mt 0 -Is 0.0 -Id 0.0 -It Slotted-FAMA -Il 11 -If 0 -Ii 0 -Iv 0 -P SFAMA -Pt RTS
M 11.80000 3 (55.55, 66.71, 0.00), (62.57, 37.66), 13.20
M 12.00000 3 (56.17, 64.14, 0.00), (62.57, 37.66), 13.20
N -t 12.000000 -n 0 -e 9999.971837
N -t 12.000000 -n 1 -e 9999.998800
N -t 12.000000 -n 2 -e 9999.865054
N -t 12.000000 -n 3 -e 9999.965373
M 12.20000 3 (56.79, 61.57, 0.00), (62.57, 37.66), 13.20
s -t 12.227220000 -Hs 2 -Hd -2 -Ni 2 -Nx 20.00 -Ny 10.00 -Nz 0.00 -Ne 9999.865054 -Nl MAC -Nw --- -Ma 0 -Md 2000000 -Ms ffff0000 -Mt 0 -Is 0.0 -Id 0.0 -It Slotted-FAMA -Il 11 -If 0 -Ii 0 -Iv 0 -P SFAMA -Pt RTS
M 12.40000 3 (57.41, 59.01, 0.00), (62.57, 37.66), 13.20
M 12.60000 3 (58.03, 56.44, 0.00), (62.57, 37.66), 13.20
s -t 12.680080000 -Hs 2 -Hd -2 -Ni 2 -Nx 20.00 -Ny 10.00 -Nz 0.00 -Ne 9999.856231 -Nl MAC -Nw --- -Ma 0 -Md 2000000 -Ms ffff0000 -Mt 0 -Is 0.0 -Id 0.0 -It Slotted-FAMA -Il 11 -If 0 -Ii 0 -Iv 0 -P SFAMA -Pt RTS
M 12.80000 3 (58.65, 53.87, 0.00), (62.57, 37.66), 13.20
M 13.00000 3 (59.27, 51.31, 0.00), (62.57, 37.66), 13.20
N -t 13.000000 -n 0 -e 9999.968219
N -t 13.000000 -n 1 -e 9999.998700
N -t 13.000000 -n 2 -e 9999.847356
N -t 13.000000 -n 3 -e 9999.961755
s -t 13.132940000 -Hs 2 -Hd -2 -Ni 2 -Nx 20.00 -Ny 10.00 -Nz 0.00 -Ne 9999.847356 -Nl MAC -Nw --- -Ma 0 -Md 2000000 -Ms ffff0000 -Mt 0 -Is 0.0 -Id 0.0 -It Slotted-FAMA -Il 11 -If 0 -Ii 0 -Iv 0 -P SFAMA -Pt RTS
M 13.20000 3 (59.89, 48.74, 0.00), (62.57, 37.66), 13.20
M 13.40000 3 (60.51, 46.17, 0.00), (62.57, 37.66), 13.20
s -t 13.510323333 -Hs 2 -Hd -2 -Ni 2 -Nx 20.00 -Ny 10.00 -Nz 0.00 -Ne 9999.838543 -Nl MAC -Nw --- -Ma 0 -Md 2000000 -Ms ffff0000 -Mt 0 -Is 0.0 -Id 0.0 -It Slotted-FAMA -Il 11 -If 0 -Ii 0 -Iv 0 -P SFAMA -Pt RTS
M 13.60000 3 (61.13, 43.61, 0.00), (62.57, 37.66), 13.20
M 13.80000 3 (61.75, 41.04, 0.00), (62.57, 37.66), 13.20
M 14.00000 3 (62.37, 38.47, 0.00), (62.57, 37.66), 13.20
N -t 14.000000 -n 0 -e 9999.964600
N -t 14.000000 -n 1 -e 9999.998600
N -t 14.000000 -n 2 -e 9999.829658
N -t 14.000000 -n 3 -e 9999.958137
s -t 14.189613333 -Hs 2 -Hd -2 -Ni 2 -Nx 20.00 -Ny 10.00 -Nz 0.00 -Ne 9999.829658 -Nl MAC -Nw --- -Ma 0 -Md 2000000 -Ms ffff0000 -Mt 0 -Is 0.0 -Id 0.0 -It Slotted-FAMA -Il 11 -If 0 -Ii 0 -Iv 0 -P SFAMA -Pt RTS
M 14.20000 3 (62.57, 37.66, 0.00), (83.55, 65.89), 15.09
M 14.40000 3 (64.37, 40.08, 0.00), (83.55, 65.89), 15.09
M 14.60000 3 (66.17, 42.50, 0.00), (83.55, 65.89), 15.09
M 14.80000 3 (67.97, 44.92, 0.00), (83.55, 65.89), 15.09
s -t 14.944380000 -Hs 2 -Hd -2 -Ni 2 -Nx 20.00 -Ny 10.00 -Nz 0.00 -Ne 9999.820839 -Nl MAC -Nw --- -Ma 0 -Md 2000000 -Ms ffff0000 -Mt 0 -Is 0.0 -Id 0.0 -It Slotted-FAMA -Il 11 -If 0 -Ii 0 -Iv 0 -P SFAMA -Pt RTS
M 15.00000 3 (69.77, 47.34, 0.00), (83.55, 65.89), 15.09
N -t 15.000000 -n 0 -e 9999.960982
N -t 15.000000 -n 1 -e 9999.998500
N -t 15.000000 -n 2 -e 9999.811959
N -t 15.000000 -n 3 -e 9999.954518
M 15.20000 3 (71.57, 49.77, 0.00), (83.55, 65.89), 15.09
M 15.40000 3 (73.37, 52.19, 0.00), (83.55, 65.89), 15.09
M 15.60000 3 (75.17, 54.61, 0.00), (83.55, 65.89), 15.09
s -t 15.623670000 -Hs 2 -Hd -2 -Ni 2 -Nx 20.00 -Ny 10.00 -Nz 0.00 -Ne 9999.811959 -Nl MAC -Nw --- -Ma 0 -Md 2000000 -Ms ffff0000 -Mt 0 -Is 0.0 -Id 0.0 -It Slotted-FAMA -Il 11 -If 0 -Ii 0 -Iv 0 -P SFAMA -Pt RTS
M 15.80000 3 (76.97, 57.03, 0.00), (83.55, 65.89), 15.09
M 16.00000 3 (78.77, 59.46, 0.00), (83.55, 65.89), 15.09
N -t 16.000000 -n 0 -e 9999.959123
N -t 16.000000 -n 1 -e 9999.998400
N -t 16.000000 -n 2 -e 9999.803060
N -t 16.000000 -n 3 -e 9999.952659
M 16.20000 3 (80.57, 61.88, 0.00), (83.55, 65.89), 15.09
s -t 16.227483333 -Hs 2 -Hd -2 -Ni 2 -Nx 20.00 -Ny 10.00 -Nz 0.00 -Ne 9999.803060 -Nl MAC -Nw --- -Ma 0 -Md 2000000 -Ms ffff0000 -Mt 0 -Is 0.0 -Id 0.0 -It Slotted-FAMA -Il 11 -If 0 -Ii 0 -Iv 0 -P SFAMA -Pt RTS
M 16.40000 3 (82.37, 64.30, 0.00), (83.55, 65.89), 15.09
M 16.60000 3 (83.55, 65.89, 0.00), (57.49, 54.38), 15.37
s -t 16.680343333 -Hs 2 -Hd -2 -Ni 2 -Nx 20.00 -Ny 10.00 -Nz 0.00 -Ne 9999.794237 -Nl MAC -Nw --- -Ma 0 -Md 2000000 -Ms ffff0000 -Mt 0 -Is 0.0 -Id 0.0 -It Slotted-FAMA -Il 11 -If 0 -Ii 0 -Iv 0 -P SFAMA -Pt RTS
M 16.80000 3 (80.74, 64.65, 0.00), (57.49, 54.38), 15.37
M 17.00000 3 (77.93, 63.41, 0.00), (57.49, 54.38), 15.37
N -t 17.000000 -n 0 -e 9999.955505
N -t 17.000000 -n 1 -e 9999.998300
N -t 17.000000 -n 2 -e 9999.785362
N -t 17.000000 -n 3 -e 9999.949041
M 17.20000 3 (75.12, 62.17, 0.00), (57.49, 54.38), 15.37
s -t 17.208680000 -Hs 2 -Hd -2 -Ni 2 -Nx 20.00 -Ny 10.00 -Nz 0.00 -Ne 9999.785362 -Nl MAC -Nw --- -Ma 0 -Md 2000000 -Ms ffff0000 -Mt 0 -Is 0.0 -Id 0.0 -It Slotted-FAMA -Il 11 -If 0 -Ii 0 -Iv 0 -P SFAMA -Pt RTS
M 17.40000 3 (72.31, 60.92, 0.00), (57.49, 54.38), 15.37
M 17.60000 3 (69.49, 59.68, 0.00), (57.49, 54.38), 15.37
M 17.80000 3 (66.68, 58.44, 0.00), (57.49, 54.38), 15.37
s -t 17.812493333 -Hs 2 -Hd -2 -Ni 2 -Nx 20.00 -Ny 10.00 -Nz 0.00 -Ne 9999.776541 -Nl MAC -Nw --- -Ma 0 -Md 2000000 -Ms ffff0000 -Mt 0 -Is 0.0 -Id 0.0 -It Slotted-FAMA -Il 11 -If 0 -Ii 0 -Iv 0 -P SFAMA -Pt RTS
M 18.00000 3 (63.87, 57.20, 0.00), (57.49, 54.38), 15.37
N -t 18.000000 -n 0 -e 9999.951887
N -t 18.000000 -n 1 -e 9999.998200
N -t 18.000000 -n 2 -e 9999.767664
N -t 18.000000 -n 3 -e 9999.945423
M 18.20000 3 (61.06, 55.96, 0.00), (57.49, 54.38), 15.37
s -t 18.340830000 -Hs 2 -Hd -2 -Ni 2 -Nx 20.00 -Ny 10.00 -Nz 0.00 -Ne 9999.767664 -Nl MAC -Nw --- -Ma 0 -Md 2000000 -Ms ffff0000 -Mt 0 -Is 0.0 -Id 0.0 -It Slotted-FAMA -Il 11 -If 0 -Ii 0 -Iv 0 -P SFAMA -Pt RTS
M 18.40000 3 (58.25, 54.72, 0.00), (57.49, 54.38), 15.37
M 18.60000 3 (57.49, 54.38, 0.00), (7.26, 37.81), 13.31
M 18.80000 3 (54.96, 53.55, 0.00), (7.26, 37.81), 13.31
s -t 18.869166667 -Hs 2 -Hd -2 -Ni 2 -Nx 20.00 -Ny 10.00 -Nz 0.00 -Ne 9999.758830 -Nl MAC -Nw --- -Ma 0 -Md 2000000 -Ms ffff0000 -Mt 0 -Is 0.0 -Id 0.0 -It Slotted-FAMA -Il 11 -If 0 -Ii 0 -Iv 0 -P SFAMA -Pt RTS
M 19.00000 3 (52.43, 52.72, 0.00), (7.26, 37.81), 13.31
N -t 19.000000 -n 0 -e 9999.948268
N -t 19.000000 -n 1 -e 9999.998100
N -t 19.000000 -n 2 -e 9999.749966
N -t 19.000000 -n 3 -e 9999.941805
M 19.20000 3 (49.91, 51.88, 0.00), (7.26, 37.81), 13.31
s -t 19.322026667 -Hs 2 -Hd -2 -Ni 2 -Nx 20.00 -Ny 10.00 -Nz 0.00 -Ne 9999.749966 -Nl MAC -Nw --- -Ma 0 -Md 2000000 -Ms ffff0000 -Mt 0 -Is 0.0 -Id 0.0 -It Slotted-FAMA -Il 11 -If 0 -Ii 0 -Iv 0 -P SFAMA -Pt RTS
M 19.40000 3 (47.38, 51.05, 0.00), (7.26, 37.81), 13.31
M 19.60000 3 (44.85, 50.21, 0.00), (7.26, 37.81), 13.31
M 19.80000 3 (42.32, 49.38, 0.00), (7.26, 37.81), 13.31
s -t 19.925840000 -Hs 2 -Hd -2 -Ni 2 -Nx 20.00 -Ny 10.00 -Nz 0.00 -Ne 9999.741133 -Nl MAC -Nw --- -Ma 0 -Md 2000000 -Ms ffff0000 -Mt 0 -Is 0.0 -Id 0.0 -It Slotted-FAMA -Il 11 -If 0 -Ii 0 -Iv 0 -P SFAMA -Pt RTS
M 20.00000 3 (39.80, 48.54, 0.00), (7.26, 37.81), 13.31
N -t 20.000000 -n 0 -e 9999.944650
N -t 20.000000 -n 1 -e 9999.998000
N -t 20.000000 -n 2 -e 9999.732267
N -t 20.000000 -n 3 -e 9999.938186
M 20.20000 3 (37.27, 47.71, 0.00), (7.26, 37.81), 13.31
s -t 20.378700000 -Hs 2 -Hd -2 -Ni 2 -Nx 20.00 -Ny 10.00 -Nz 0.00 -Ne 9999.732267 -Nl MAC -Nw --- -Ma 0 -Md 2000000 -Ms ffff0000 -Mt 0 -Is 0.0 -Id 0.0 -It Slotted-FAMA -Il 11 -If 0 -Ii 0 -Iv 0 -P SFAMA -Pt RTS
M 20.40000 3 (34.74, 46.88, 0.00), (7.26, 37.81), 13.31
M 20.60000 3 (32.21, 46.04, 0.00), (7.26, 37.81), 13.31
M 20.80000 3 (29.68, 45.21, 0.00), (7.26, 37.81), 13.31
M 21.00000 3 (27.16, 44.37, 0.00), (7.26, 37.81), 13.31
N -t 21.000000 -n 0 -e 9999.942791
N -t 21.000000 -n 1 -e 9999.997900
N -t 21.000000 -n 2 -e 9999.723368
N -t 21.000000 -n 3 -e 9999.936327
s -t 21.133466667 -Hs 2 -Hd -2 -Ni 2 -Nx 20.00 -Ny 10.00 -Nz 0.00 -Ne 9999.723368 -Nl MAC -Nw --- -Ma 0 -Md 2000000 -Ms ffff0000 -Mt 0 -Is 0.0 -Id 0.0 -It Slotted-FAMA -Il 11 -If 0 -Ii 0 -Iv 0 -P SFAMA -Pt RTS
M 21.20000 3 (24.63, 43.54, 0.00), (7.26, 37.81), 13.31
M 21.40000 3 (22.10, 42.71, 0.00), (7.26, 37.81), 13.31
s -t 21.586326667 -Hs 2 -Hd -2 -Ni 2 -Nx 20.00 -Ny 10.00 -Nz 0.00 -Ne 9999.714555 -Nl MAC -Nw --- -Ma 0 -Md 2000000 -Ms ffff0000 -Mt 0 -Is 0.0 -Id 0.0 -It Slotted-FAMA -Il 11 -If 0 -Ii 0 -Iv 0 -P SFAMA -Pt RTS
M 21.60000 3 (19.57, 41.87, 0.00), (7.26, 37.81), 13.31
M 21.80000 3 (17.05, 41.04, 0.00), (7.26, 37.81), 13.31
M 22.00000 3 (14.52, 40.20, 0.00), (7.26, 37.81), 13.31
N -t 22.000000 -n 0 -e 9999.939173
N -t 22.000000 -n 1 -e 9999.997800
N -t 22.000000 -n 2 -e 9999.705670
N -t 22.000000 -n 3 -e 9999.932709
s -t 22.190140000 -Hs 2 -Hd -2 -Ni 2 -Nx 20.00 -Ny 10.00 -Nz 0.00 -Ne 9999.705670 -Nl MAC -Nw --- -Ma 0 -Md 2000000 -Ms ffff0000 -Mt 0 -Is 0.0 -Id 0.0 -It Slotted-FAMA -Il 11 -If 0 -Ii 0 -Iv 0 -P SFAMA -Pt RTS
M 22.20000 3 (11.99, 39.37, 0.00), (7.26, 37.81), 13.31
M 22.40000 3 (9.46, 38.54, 0.00), (7.26, 37.81), 13.31
M 22.60000 3 (7.26, 37.81, 0.00), (74.49, 85.80), 10.72
M 22.80000 3 (9.00, 39.05, 0.00), (74.49, 85.80), 10.72
s -t 22.944906667 -Hs 2 -Hd -2 -Ni 2 -Nx 20.00 -Ny 10.00 -Nz 0.00 -Ne 9999.696851 -Nl MAC -Nw --- -Ma 0 -Md 2000000 -Ms ffff0000 -Mt 0 -Is 0.0 -Id 0.0 -It Slotted-FAMA -Il 11 -If 0 -Ii 0 -Iv 0 -P SFAMA -Pt RTS
M 23.00000 3 (10.75, 40.30, 0.00), (74.49, 85.80), 10.72
N -t 23.000000 -n 0 -e 9999.935555
N -t 23.000000 -n 1 -e 9999.997700
N -t 23.000000 -n 2 -e 9999.687972
N -t 23.000000 -n 3 -e 9999.929091
M 23.20000 3 (12.49, 41.55, 0.00), (74.49, 85.80), 10.72
M 23.40000 3 (14.24, 42.79, 0.00), (74.49, 85.80), 10.72
s -t 23.473243333 -Hs 2 -Hd -2 -Ni 2 -Nx 20.00 -Ny 10.00 -Nz 0.00 -Ne 9999.687972 -Nl MAC -Nw --- -Ma 0 -Md 2000000 -Ms ffff0000 -Mt 0 -Is 0.0 -Id 0.0 -It Slotted-FAMA -Il 11 -If 0 -Ii 0 -Iv 0 -P SFAMA -Pt RTS
M 23.60000 3 (15.98, 44.04, 0.00), (74.49, 85.80), 10.72
M 23.80000 3 (17.73, 45.28, 0.00), (74.49, 85.80), 10.72
M 24.00000 3 (19.47, 46.53, 0.00), (74.49, 85.80), 10.72
N -t 24.000000 -n 0 -e 9999.933695
N -t 24.000000 -n 1 -e 9999.997600
N -t 24.000000 -n 2 -e 9999.679073
N -t 24.000000 -n 3 -e 9999.927232
s -t 24.152533333 -Hs 2 -Hd -2 -Ni 2 -Nx 20.00 -Ny 10.00 -Nz 0.00 -Ne 9999.679073 -Nl MAC -Nw --- -Ma 0 -Md 2000000 -Ms ffff0000 -Mt 0 -Is 0.0 -Id 0.0 -It Slotted-FAMA -Il 11 -If 0 -Ii 0 -Iv 0 -P SFAMA -Pt RTS
M 24.20000 3 (21.22, 47.77, 0.00), (74.49, 85.80), 10.72
M 24.40000 3 (22.96, 49.02, 0.00), (74.49, 85.80), 10.72
M 24.60000 3 (24.71, 50.27, 0.00), (74.49, 85.80), 10.72
M 24.80000 3 (26.45, 51.51, 0.00), (74.49, 85.80), 10.72
s -t 24.907300000 -Hs 2 -Hd -2 -Ni 2 -Nx 20.00 -Ny 10.00 -Nz 0.00 -Ne 9999.670257 -Nl MAC -Nw --- -Ma 0 -Md 2000000 -Ms ffff0000 -Mt 0 -Is 0.0 -Id 0.0 -It Slotted-FAMA -Il 11 -If 0 -Ii 0 -Iv 0 -P SFAMA -Pt RTS
M 25.00000 3 (28.20, 52.76, 0.00), (74.49, 85.80), 10.72
N -t 25.000000 -n 0 -e 9999.930077
N -t 25.000000 -n 1 -e 9999.997500
N -t 25.000000 -n 2 -e 9999.661374
N -t 25.000000 -n 3 -e 9999.923613
M 25.20000 3 (29.94, 54.00, 0.00), (74.49, 85.80), 10.72
s -t 25.360160000 -Hs 2 -Hd -2 -Ni 2 -Nx 20.00 -Ny 10.00 -Nz 0.00 -Ne 9999.661374 -Nl MAC -Nw --- -Ma 0 -Md 2000000 -Ms ffff0000 -Mt 0 -Is 0.0 -Id 0.0 -It Slotted-FAMA -Il 11 -If 0 -Ii 0 -Iv 0 -P SFAMA -Pt RTS
M 25.40000 3 (31.69, 55.25, 0.00), (74.49, 85.80), 10.72
M 25.60000 3 (33.43, 56.49, 0.00), (74.49, 85.80), 10.72
M 25.80000 3 (35.18, 57.74, 0.00), (74.49, 85.80), 10.72
s -t 25.888496667 -Hs 2 -Hd -2 -Ni 2 -Nx 20.00 -Ny 10.00 -Nz 0.00 -Ne 9999.652538 -Nl MAC -Nw --- -Ma 0 -Md 2000000 -Ms ffff0000 -Mt 0 -Is 0.0 -Id 0.0 -It Slotted-FAMA -Il 11 -If 0 -Ii 0 -Iv 0 -P SFAMA -Pt RTS
M 26.00000 3 (36.93, 58.99, 0.00), (74.49, 85.80), 10.72
N -t 26.000000 -n 0 -e 9999.926459
N -t 26.000000 -n 1 -e 9999.997400
N -t 26.000000 -n 2 -e 9999.643676
N -t 26.000000 -n 3 -e 9999.919995
M 26.20000 3 (38.67, 60.23, 0.00), (74.49, 85.80), 10.72
M 26.40000 3 (40.42, 61.48, 0.00), (74.49, 85.80), 10.72
s -t 26.492310000 -Hs 2 -Hd -2 -Ni 2 -Nx 20.00 -Ny 10.00 -Nz 0.00 -Ne 9999.643676 -Nl MAC -Nw --- -Ma 0 -Md 2000000 -Ms ffff0000 -Mt 0 -Is 0.0 -Id 0.0 -It Slotted-FAMA -Il 11 -If 0 -Ii 0 -Iv 0 -P SFAMA -Pt RTS
M 26.60000 3 (42.16, 62.72, 0.00), (74.49, 85.80), 10.72
M 26.80000 3 (43.91, 63.97, 0.00), (74.49, 85.80), 10.72
M 27.00000 3 (45.65, 65.21, 0.00), (74.49, 85.80), 10.72
N -t 27.000000 -n 0 -e 9999.924600
N -t 27.000000 -n 1 -e 9999.997300
N -t 27.000000 -n 2 -e 9999.634777
N -t 27.000000 -n 3 -e 9999.918136
M 27.20000 3 (47.40, 66.46, 0.00), (74.49, 85.80), 10.72
s -t 27.247076667 -Hs 2 -Hd -2 -Ni 2 -Nx 20.00 -Ny 10.00 -Nz 0.00 -Ne 9999.634777 -Nl MAC -Nw --- -Ma 0 -Md 2000000 -Ms ffff0000 -Mt 0 -Is 0.0 -Id 0.0 -It Slotted-FAMA -Il 11 -If 0 -Ii 0 -Iv 0 -P SFAMA -Pt RTS
M 27.40000 3 (49.14, 67.71, 0.00), (74.49, 85.80), 10.72
M 27.60000 3 (50.89, 68.95, 0.00), (74.49, 85.80), 10.72
s -t 27.624460000 -Hs 2 -Hd -2 -Ni 2 -Nx 20.00 -Ny 10.00 -Nz 0.00 -Ne 9999.625952 -Nl MAC -Nw --- -Ma 0 -Md 2000000 -Ms ffff0000 -Mt 0 -Is 0.0 -Id 0.0 -It Slotted-FAMA -Il 11 -If 0 -Ii 0 -Iv 0 -P SFAMA -Pt RTS
M 27.80000 3 (52.63, 70.20, 0.00), (74.49, 85.80), 10.72
M 28.00000 3 (54.38, 71.44, 0.00), (74.49, 85.80), 10.72
N -t 28.000000 -n 0 -e 9999.920982
N -t 28.000000 -n 1 -e 9999.997200
N -t 28.000000 -n 2 -e 9999.617079
N -t 28.000000 -n 3 -e 9999.914518
M 28.20000 3 (56.12, 72.69, 0.00), (74.49, 85.80), 10.72
s -t 28.379226667 -Hs 2 -Hd -2 -Ni 2 -Nx 20.00 -Ny 10.00 -Nz 0.00 -Ne 9999.617079 -Nl MAC -Nw --- -Ma 0 -Md 2000000 -Ms ffff0000 -Mt 0 -Is 0.0 -Id 0.0 -It Slotted-FAMA -Il 11 -If 0 -Ii 0 -Iv 0 -P SFAMA -Pt RTS
M 28.40000 3 (57.87, 73.93, 0.00), (74.49, 85.80), 10.72
M 28.60000 3 (59.61, 75.18, 0.00), (74.49, 85.80), 10.72
M 28.80000 3 (61.36, 76.43, 0.00), (74.49, 85.80), 10.72
s -t 28.832086667 -Hs 2 -Hd -2 -Ni 2 -Nx 20.00 -Ny 10.00 -Nz 0.00 -Ne 9999.608241 -Nl MAC -Nw --- -Ma 0 -Md 2000000 -Ms ffff0000 -Mt 0 -Is 0.0 -Id 0.0 -It Slotted-FAMA -Il 11 -If 0 -Ii 0 -Iv 0 -P SFAMA -Pt RTS
M 29.00000 3 (63.10, 77.67, 0.00), (74.49, 85.80), 10.72
N -t 29.000000 -n 0 -e 9999.917363
N -t 29.000000 -n 1 -e 9999.997100
N -t 29.000000 -n 2 -e 9999.599380
N -t 29.000000 -n 3 -e 9999.910900
M 29.20000 3 (64.85, 78.92, 0.00), (74.49, 85.80), 10.72
s -t 29.284946667 -Hs 2 -Hd -2 -Ni 2 -Nx 20.00 -Ny 10.00 -Nz 0.00 -Ne 9999.599380 -Nl MAC -Nw --- -Ma 0 -Md 2000000 -Ms ffff0000 -Mt 0 -Is 0.0 -Id 0.0 -It Slotted-FAMA -Il 11 -If 0 -Ii 0 -Iv 0 -P SFAMA -Pt RTS
M 29.40000 3 (66.59, 80.16, 0.00), (74.49, 85.80), 10.72
M 29.60000 3 (68.34, 81.41, 0.00), (74.49, 85.80), 10.72
M 29.80000 3 (70.08, 82.65, 0.00), (74.49, 85.80), 10.72
s -t 29.888760000 -Hs 2 -Hd -2 -Ni 2 -Nx 20.00 -Ny 10.00 -Nz 0.00 -Ne 9999.590552 -Nl MAC -Nw --- -Ma 0 -Md 2000000 -Ms ffff0000 -Mt 0 -Is 0.0 -Id 0.0 -It Slotted-FAMA -Il 11 -If 0 -Ii 0 -Iv 0 -P SFAMA -Pt RTS
M 30.00000 3 (71.83, 83.90, 0.00), (74.49, 85.80), 10.72
N -t 30.000000 -n 0 -e 9999.913745
N -t 30.000000 -n 1 -e 9999.997000
N -t 30.000000 -n 2 -e 9999.581682
N -t 30.000000 -n 3 -e 9999.907281
M 30.20000 3 (73.57, 85.15, 0.00), (74.49, 85.80), 10.72
M 30.40000 3 (74.49, 85.80, 0.00), (30.17, 5.38), 10.93
s -t 30.492573333 -Hs 2 -Hd -2 -Ni 2 -Nx 20.00 -Ny 10.00 -Nz 0.00 -Ne 9999.581682 -Nl MAC -Nw --- -Ma 0 -Md 2000000 -Ms ffff0000 -Mt 0 -Is 0.0 -Id 0.0 -It Slotted-FAMA -Il 11 -If 0 -Ii 0 -Iv 0 -P SFAMA -Pt RTS
M 30.60000 3 (73.43, 83.88, 0.00), (30.17, 5.38), 10.93
M 30.80000 3 (72.38, 81.97, 0.00), (30.17, 5.38), 10.93
s -t 30.945433333 -Hs 2 -Hd -2 -Ni 2 -Nx 20.00 -Ny 10.00 -Nz 0.00 -Ne 9999.572833 -Nl MAC -Nw --- -Ma 0 -Md 2000000 -Ms ffff0000 -Mt 0 -Is 0.0 -Id 0.0 -It Slotted-FAMA -Il 11 -If 0 -Ii 0 -Iv 0 -P SFAMA -Pt RTS
M 31.00000 3 (71.32, 80.06, 0.00), (30.17, 5.38), 10.93
N -t 31.000000 -n 0 -e 9999.910127
N -t 31.000000 -n 1 -e 9999.996900
N -t 31.000000 -n 2 -e 9999.563984
N -t 31.000000 -n 3 -e 9999.905422
M 31.20000 3 (70.27, 78.14, 0.00), (30.17, 5.38), 10.93
M 31.40000 3 (69.21, 76.23, 0.00), (30.17, 5.38), 10.93
s -t 31.473770000 -Hs 2 -Hd -2 -Ni 2 -Nx 20.00 -Ny 10.00 -Nz 0.00 -Ne 9999.563984 -Nl MAC -Nw --- -Ma 0 -Md 2000000 -Ms ffff0000 -Mt 0 -Is 0.0 -Id 0.0 -It Slotted-FAMA -Il 11 -If 0 -Ii 0 -Iv 0 -P SFAMA -Pt RTS
M 31.60000 3 (68.16, 74.32, 0.00), (30.17, 5.38), 10.93
M 31.80000 3 (67.10, 72.40, 0.00), (30.17, 5.38), 10.93
s -t 31.851153333 -Hs 2 -Hd -2 -Ni 2 -Nx 20.00 -Ny 10.00 -Nz 0.00 -Ne 9999.555137 -Nl MAC -Nw --- -Ma 0 -Md 2000000 -Ms ffff0000 -Mt 0 -Is 0.0 -Id 0.0 -It Slotted-FAMA -Il 11 -If 0 -Ii 0 -Iv 0 -P SFAMA -Pt RTS
M 32.00000 3 (66.05, 70.49, 0.00), (30.17, 5.38), 10.93
N -t 32.000000 -n 0 -e 9999.906509
N -t 32.000000 -n 1 -e 9999.996800
N -t 32.000000 -n 2 -e 9999.546286
N -t 32.000000 -n 3 -e 9999.900045
s -t 32.153060000 -Hs 2 -Hd -2 -Ni 2 -Nx 20.00 -Ny 10.00 -Nz 0.00 -Ne 9999.546286 -Nl MAC -Nw --- -Ma 0 -Md 2000000 -Ms ffff0000 -Mt 0 -Is 0.0 -Id 0.0 -It Slotted-FAMA -Il 11 -If 0 -Ii 0 -Iv 0 -P SFAMA -Pt RTS
M 32.20000 3 (64.99, 68.57, 0.00), (30.17, 5.38), 10.93
M 32.40000 3 (63.94, 66.66, 0.00), (30.17, 5.38), 10.93
M 32.60000 3 (62.89, 64.75, 0.00), (30.17, 5.38), 10.93
s -t 32.756873333 -Hs 2 -Hd -2 -Ni 2 -Nx 20.00 -Ny 10.00 -Nz 0.00 -Ne 9999.537470 -Nl MAC -Nw --- -Ma 0 -Md 2000000 -Ms ffff0000 -Mt 0 -Is 0.0 -Id 0.0 -It Slotted-FAMA -Il 11 -If 0 -Ii 0 -Iv 0 -P SFAMA -Pt RTS
M 32.80000 3 (61.83, 62.83, 0.00), (30.17, 5.38), 10.93
M 33.00000 3 (60.78, 60.92, 0.00), (30.17, 5.38), 10.93
N -t 33.000000 -n 0 -e 9999.902890
N -t 33.000000 -n 1 -e 9999.996700
N -t 33.000000 -n 2 -e 9999.528588
N -t 33.000000 -n 3 -e 9999.896427
s -t 33.058780000 -Hs 2 -Hd -2 -Ni 2 -Nx 20.00 -Ny 10.00 -Nz 0.00 -Ne 9999.528588 -Nl MAC -Nw --- -Ma 0 -Md 2000000 -Ms ffff0000 -Mt 0 -Is 0.0 -Id 0.0 -It Slotted-FAMA -Il 11 -If 0 -Ii 0 -Iv 0 -P SFAMA -Pt RTS
M 33.20000 3 (59.72, 59.01, 0.00), (30.17, 5.38), 10.93
M 33.40000 3 (58.67, 57.09, 0.00), (30.17, 5.38), 10.93
M 33.60000 3 (57.61, 55.18, 0.00), (30.17, 5.38), 10.93
s -t 33.662593333 -Hs 2 -Hd -2 -Ni 2 -Nx 20.00 -Ny 10.00 -Nz 0.00 -Ne 9999.519782 -Nl MAC -Nw --- -Ma 0 -Md 2000000 -Ms ffff0000 -Mt 0 -Is 0.0 -Id 0.0 -It Slotted-FAMA -Il 11 -If 0 -Ii 0 -Iv 0 -P SFAMA -Pt RTS
M 33.80000 3 (56.56, 53.26, 0.00), (30.17, 5.38), 10.93
M 34.00000 3 (55.50, 51.35, 0.00), (30.17, 5.38), 10.93
N -t 34.000000 -n 0 -e 9999.899272
N -t 34.000000 -n 1 -e 9999.996600
N -t 34.000000 -n 2 -e 9999.510889
N -t 34.000000 -n 3 -e 9999.892808
s -t 34.190930000 -Hs 2 -Hd -2 -Ni 2 -Nx 20.00 -Ny 10.00 -Nz 0.00 -Ne 9999.510889 -Nl MAC -Nw --- -Ma 0 -Md 2000000 -Ms ffff0000 -Mt 0 -Is 0.0 -Id 0.0 -It Slotted-FAMA -Il 11 -If 0 -Ii 0 -Iv 0 -P SFAMA -Pt RTS
M 34.20000 3 (54.45, 49.44, 0.00), (30.17, 5.38), 10.93
M 34.40000 3 (53.39, 47.52, 0.00), (30.17, 5.38), 10.93
M 34.60000 3 (52.34, 45.61, 0.00), (30.17, 5.38), 10.93
M 34.80000 3 (51.28, 43.69, 0.00), (30.17, 5.38), 10.93
s -t 34.945696667 -Hs 2 -Hd -2 -Ni 2 -Nx 20.00 -Ny 10.00 -Nz 0.00 -Ne 9999.502070 -Nl MAC -Nw --- -Ma 0 -Md 2000000 -Ms ffff0000 -Mt 0 -Is 0.0 -Id 0.0 -It Slotted-FAMA -Il 11 -If 0 -Ii 0 -Iv 0 -P SFAMA -Pt RTS
M 35.00000 3 (50.23, 41.78, 0.00), (30.17, 5.38), 10.93
N -t 35.000000 -n 0 -e 9999.895654
N -t 35.000000 -n 1 -e 9999.996500
N -t 35.000000 -n 2 -e 9999.493191
N -t 35.000000 -n 3 -e 9999.889190
M 35.20000 3 (49.18, 39.87, 0.00), (30.17, 5.38), 10.93
s -t 35.323080000 -Hs 2 -Hd -2 -Ni 2 -Nx 20.00 -Ny 10.00 -Nz 0.00 -Ne 9999.493191 -Nl MAC -Nw --- -Ma 0 -Md 2000000 -Ms ffff0000 -Mt 0 -Is 0.0 -Id 0.0 -It Slotted-FAMA -Il 11 -If 0 -Ii 0 -Iv 0 -P SFAMA -Pt RTS
M 35.40000 3 (48.12, 37.95, 0.00), (30.17, 5.38), 10.93
M 35.60000 3 (47.07, 36.04, 0.00), (30.17, 5.38), 10.93
M 35.80000 3 (46.01, 34.13, 0.00), (30.17, 5.38), 10.93
s -t 35.851416667 -Hs 2 -Hd -2 -Ni 2 -Nx 20.00 -Ny 10.00 -Nz 0.00 -Ne 9999.484359 -Nl MAC -Nw --- -Ma 0 -Md 2000000 -Ms ffff0000 -Mt 0 -Is 0.0 -Id 0.0 -It Slotted-FAMA -Il 11 -If 0 -Ii 0 -Iv 0 -P SFAMA -Pt RTS
M 36.00000 3 (44.96, 32.21, 0.00), (30.17, 5.38), 10.93
N -t 36.000000 -n 0 -e 9999.892036
N -t 36.000000 -n 1 -e 9999.996400
N -t 36.000000 -n 2 -e 9999.475493
N -t 36.000000 -n 3 -e 9999.885572
M 36.20000 3 (43.90, 30.30, 0.00), (30.17, 5.38), 10.93
s -t 36.304276667 -Hs 2 -Hd -2 -Ni 2 -Nx 20.00 -Ny 10.00 -Nz 0.00 -Ne 9999.475493 -Nl MAC -Nw --- -Ma 0 -Md 2000000 -Ms ffff0000 -Mt 0 -Is 0.0 -Id 0.0 -It Slotted-FAMA -Il 11 -If 0 -Ii 0 -Iv 0 -P SFAMA -Pt RTS
M 36.40000 3 (42.85, 28.38, 0.00), (30.17, 5.38), 10.93
M 36.60000 3 (41.79, 26.47, 0.00), (30.17, 5.38), 10.93
M 36.80000 3 (40.74, 24.56, 0.00), (30.17, 5.38), 10.93
s -t 36.832613333 -Hs 2 -Hd -2 -Ni 2 -Nx 20.00 -Ny 10.00 -Nz 0.00 -Ne 9999.466662 -Nl MAC -Nw --- -Ma 0 -Md 2000000 -Ms ffff0000 -Mt 0 -Is 0.0 -Id 0.0 -It Slotted-FAMA -Il 11 -If 0 -Ii 0 -Iv 0 -P SFAMA -Pt RTS
M 37.00000 3 (39.68, 22.64, 0.00), (30.17, 5.38), 10.93
N -t 37.000000 -n 0 -e 9999.888417
N -t 37.000000 -n 1 -e 9999.996300
N -t 37.000000 -n 2 -e 9999.457795
N -t 37.000000 -n 3 -e 9999.881954
M 37.20000 3 (38.63, 20.73, 0.00), (30.17, 5.38), 10.93
s -t 37.285473333 -Hs 2 -Hd -2 -Ni 2 -Nx 20.00 -Ny 10.00 -Nz 0.00 -Ne 9999.457795 -Nl MAC -Nw --- -Ma 0 -Md 2000000 -Ms ffff0000 -Mt 0 -Is 0.0 -Id 0.0 -It Slotted-FAMA -Il 11 -If 0 -Ii 0 -Iv 0 -P SFAMA -Pt RTS
M 37.40000 3 (37.58, 18.82, 0.00), (30.17, 5.38), 10.93
M 37.60000 3 (36.52, 16.90, 0.00), (30.17, 5.38), 10.93
M 37.80000 3 (35.47, 14.99, 0.00), (30.17, 5.38), 10.93
s -t 37.813810000 -Hs 2 -Hd -2 -Ni 2 -Nx 20.00 -Ny 10.00 -Nz 0.00 -Ne 9999.448966 -Nl MAC -Nw --- -Ma 0 -Md 2000000 -Ms ffff0000 -Mt 0 -Is 0.0 -Id 0.0 -It Slotted-FAMA -Il 11 -If 0 -Ii 0 -Iv 0 -P SFAMA -Pt RTS
N -t 38.000000 -n 0 -e 9999.884799
N -t 38.000000 -n 1 -e 9999.996200
N -t 38.000000 -n 2 -e 9999.440096
N -t 38.000000 -n 3 -e 9999.878335
M 38.00000 3 (34.41, 13.07, 0.00), (30.17, 5.38), 10.93
M 38.20000 3 (33.36, 11.16, 0.00), (30.17, 5.38), 10.93
s -t 38.342146667 -Hs 2 -Hd -2 -Ni 2 -Nx 20.00 -Ny 10.00 -Nz 0.00 -Ne 9999.440096 -Nl MAC -Nw --- -Ma 0 -Md 2000000 -Ms ffff0000 -Mt 0 -Is 0.0 -Id 0.0 -It Slotted-FAMA -Il 11 -If 0 -Ii 0 -Iv 0 -P SFAMA -Pt RTS
M 38.40000 3 (32.30, 9.25, 0.00), (30.17, 5.38), 10.93
M 38.60000 3 (31.25, 7.33, 0.00), (30.17, 5.38), 10.93
M 38.80000 3 (30.19, 5.42, 0.00), (30.17, 5.38), 10.93
s -t 38.870483333 -Hs 2 -Hd -2 -Ni 2 -Nx 20.00 -Ny 10.00 -Nz 0.00 -Ne 9999.431262 -Nl MAC -Nw --- -Ma 0 -Md 2000000 -Ms ffff0000 -Mt 0 -Is 0.0 -Id 0.0 -It Slotted-FAMA -Il 11 -If 0 -Ii 0 -Iv 0 -P SFAMA -Pt RTS
N -t 39.000000 -n 0 -e 9999.881181
N -t 39.000000 -n 1 -e 9999.996100