V -t * -v 1.0a5 -a 0
W -t * -x 100 -y 100
A -t * -n 1 -p 0 -o 0xffffffff -c 31 -a 1
A -t * -h 1 -m 2147483647 -s 0
n -t 1.200000 -s 3 -x -20.000000 -y 10.000000 -U 17.849136 -V 7.524580 -T 2.933702
+ -t 2.264300000 -s 3 -d -1 -p Slotted-FAMA -e 11 -c 2 -a 0 -i 0 -k MAC 
- -t 2.264300000 -s 3 -d -1 -p Slotted-FAMA -e 11 -c 2 -a 0 -i 0 -k MAC
h -t 2.264300000 -s 3 -d -1 -p Slotted-FAMA -e 11 -c 2 -a 0 -i 0 -k MAC -R 100.000000
v -t 2.264300000 -e sim_annotation 2.264300000 1 node 3 sendout packet (Slotted-FAMA) 0
+ -t 2.264300000 -s 2 -d -1 -p Slotted-FAMA -e 11 -c 2 -a 0 -i 0 -k MAC 
- -t 2.264300000 -s 2 -d -1 -p Slotted-FAMA -e 11 -c 2 -a 0 -i 0 -k MAC
h -t 2.264300000 -s 2 -d -1 -p Slotted-FAMA -e 11 -c 2 -a 0 -i 0 -k MAC -R 100.000000
v -t 2.264300000 -e sim_annotation 2.264300000 2 node 2 sendout packet (Slotted-FAMA) 0
n -t 4.200000 -s 3 -x 32.364052 -y 32.074876 -U 8.087801 -V 13.279987 -T 5.067784
+ -t 4.604076667 -s 2 -d -1 -p Slotted-FAMA -e 11 -c 2 -a 0 -i 0 -k MAC 
- -t 4.604076667 -s 2 -d -1 -p Slotted-FAMA -e 11 -c 2 -a 0 -i 0 -k MAC
h -t 4.604076667 -s 2 -d -1 -p Slotted-FAMA -e 11 -c 2 -a 0 -i 0 -k MAC -R 100.000000
v -t 4.604076667 -e sim_annotation 4.604076667 3 node 2 sendout packet (Slotted-FAMA) 0
+ -t 5.132413333 -s 2 -d -1 -p Slotted-FAMA -e 11 -c 2 -a 0 -i 0 -k MAC 
- -t 5.132413333 -s 2 -d -1 -p Slotted-FAMA -e 11 -c 2 -a 0 -i 0 -k MAC
h -t 5.132413333 -s 2 -d -1 -p Slotted-FAMA -e 11 -c 2 -a 0 -i 0 -k MAC -R 100.000000
v -t 5.132413333 -e sim_annotation 5.132413333 4 node 2 sendout packet (Slotted-FAMA) 0
+ -t 5.509796667 -s 2 -d -1 -p Slotted-FAMA -e 11 -c 2 -a 0 -i 0 -k MAC 
- -t 5.509796667 -s 2 -d -1 -p Slotted-FAMA -e 11 -c 2 -a 0 -i 0 -k MAC
h -t 5.509796667 -s 2 -d -1 -p Slotted-FAMA -e 11 -c 2 -a 0 -i 0 -k MAC -R 100.000000
v -t 5.509796667 -e sim_annotation 5.509796667 5 node 2 sendout packet (Slotted-FAMA) 0
+ -t 6.189086667 -s 2 -d -1 -p Slotted-FAMA -e 11 -c 2 -a 0 -i 0 -k MAC 
- -t 6.189086667 -s 2 -d -1 -p Slotted-FAMA -e 11 -c 2 -a 0 -i 0 -k MAC
h -t 6.189086667 -s 2 -d -1 -p Slotted-FAMA -e 11 -c 2 -a 0 -i 0 -k MAC -R 100.000000
v -t 6.189086667 -e sim_annotation 6.189086667 6 node 2 sendout packet (Slotted-FAMA) 0
+ -t 6.641946667 -s 2 -d -1 -p Slotted-FAMA -e 11 -c 2 -a 0 -i 0 -k MAC 
- -t 6.641946667 -s 2 -d -1 -p Slotted-FAMA -e 11 -c 2 -a 0 -i 0 -k MAC
h -t 6.641946667 -s 2 -d -1 -p Slotted-FAMA -e 11 -c 2 -a 0 -i 0 -k MAC -R 100.000000
v -t 6.641946667 -e sim_annotation 6.641946667 7 node 2 sendout packet (Slotted-FAMA) 0
+ -t 7.396713333 -s 2 -d -1 -p Slotted-FAMA -e 11 -c 2 -a 0 -i 0 -k MAC 
- -t 7.396713333 -s 2 -d -1 -p Slotted-FAMA -e 11 -c 2 -a 0 -i 0 -k MAC
h -t 7.396713333 -s 2 -d -1 -p Slotted-FAMA -e 11 -c 2 -a 0 -i 0 -k MAC -R 100.000000
v -t 7.396713333 -e sim_annotation 7.396713333 8 node 2 sendout packet (Slotted-FAMA) 0
+ -t 7.849573333 -s 2 -d -1 -p Slotted-FAMA -e 11 -c 2 -a 0 -i 0 -k MAC 
- -t 7.849573333 -s 2 -d -1 -p Slotted-FAMA -e 11 -c 2 -a 0 -i 0 -k MAC
h -t 7.849573333 -s 2 -d -1 -p Slotted-FAMA -e 11 -c 2 -a 0 -i 0 -k MAC -R 100.000000
v -t 7.849573333 -e sim_annotation 7.849573333 9 node 2 sendout packet (Slotted-FAMA) 0
+ -t 8.302433333 -s 2 -d -1 -p Slotted-FAMA -e 11 -c 2 -a 0 -i 0 -k MAC 
- -t 8.302433333 -s 2 -d -1 -p Slotted-FAMA -e 11 -c 2 -a 0 -i 0 -k MAC
h -t 8.302433333 -s 2 -d -1 -p Slotted-FAMA -e 11 -c 2 -a 0 -i 0 -k MAC -R 100.000000
v -t 8.302433333 -e sim_annotation 8.302433333 10 node 2 sendout packet (Slotted-FAMA) 0
+ -t 8.830770000 -s 2 -d -1 -p Slotted-FAMA -e 11 -c 2 -a 0 -i 0 -k MAC 
- -t 8.830770000 -s 2 -d -1 -p Slotted-FAMA -e 11 -c 2 -a 0 -i 0 -k MAC
h -t 8.830770000 -s 2 -d -1 -p Slotted-FAMA -e 11 -c 2 -a 0 -i 0 -k MAC -R 100.000000
v -t 8.830770000 -e sim_annotation 8.830770000 11 node 2 sendout packet (Slotted-FAMA) 0
+ -t 9.283630000 -s 2 -d -1 -p Slotted-FAMA -e 11 -c 2 -a 0 -i 0 -k MAC 
- -t 9.283630000 -s 2 -d -1 -p Slotted-FAMA -e 11 -c 2 -a 0 -i 0 -k MAC
h -t 9.283630000 -s 2 -d -1 -p Slotted-FAMA -e 11 -c 2 -a 0 -i 0 -k MAC -R 100.000000
v -t 9.283630000 -e sim_annotation 9.283630000 12 node 2 sendout packet (Slotted-FAMA) 0
n -t 9.400000 -s 3 -x 73.351282 -y 99.374986 -U -7.850435 -V -14.403869 -T 2.268130
+ -t 9.811966667 -s 2 -d -1 -p Slotted-FAMA -e 11 -c 2 -a 0 -i 0 -k MAC 
- -t 9.811966667 -s 2 -d -1 -p Slotted-FAMA -e 11 -c 2 -a 0 -i 0 -k MAC
h -t 9.811966667 -s 2 -d -1 -p Slotted-FAMA -e 11 -c 2 -a 0 -i 0 -k MAC -R 100.000000
v -t 9.811966667 -e sim_annotation 9.811966667 13 node 2 sendout packet (Slotted-FAMA) 0
+ -t 10.340303333 -s 2 -d -1 -p Slotted-FAMA -e 11 -c 2 -a 0 -i 0 -k MAC 
- -t 10.340303333 -s 2 -d -1 -p Slotted-FAMA -e 11 -c 2 -a 0 -i 0 -k MAC
h -t 10.340303333 -s 2 -d -1 -p Slotted-FAMA -e 11 -c 2 -a 0 -i 0 -k MAC -R 100.000000
v -t 10.340303333 -e sim_annotation 10.340303333 14 node 2 sendout packet (Slotted-FAMA) 0
+ -t 10.944116667 -s 2 -d -1 -p Slotted-FAMA -e 11 -c 2 -a 0 -i 0 -k MAC 
- -t 10.944116667 -s 2 -d -1 -p Slotted-FAMA -e 11 -c 2 -a 0 -i 0 -k MAC
h -t 10.944116667 -s 2 -d -1 -p Slotted-FAMA -e 11 -c 2 -a 0 -i 0 -k MAC -R 100.000000
v -t 10.944116667 -e sim_annotation 10.944116667 15 node 2 sendout packet (Slotted-FAMA) 0
+ -t 11.623406667 -s 2 -d -1 -p Slotted-FAMA -e 11 -c 2 -a 0 -i 0 -k MAC 
- -t 11.623406667 -s 2 -d -1 -p Slotted-FAMA -e 11 -c 2 -a 0 -i 0 -k MAC
h -t 11.623406667 -s 2 -d -1 -p Slotted-FAMA -e 11 -c 2 -a 0 -i 0 -k MAC -R 100.000000
v -t 11.623406667 -e sim_annotation 11.623406667 16 node 2 sendout packet (Slotted-FAMA) 0
n -t 11.800000 -s 3 -x 55.545472 -y 66.705133 -U 3.104001 -V -12.833405 -T 2.263579
+ -t 12.227220000 -s 2 -d -1 -p Slotted-FAMA -e 11 -c 2 -a 0 -i 0 -k MAC 
- -t 12.227220000 -s 2 -d -1 -p Slotted-FAMA -e 11 -c 2 -a 0 -i 0 -k MAC
h -t 12.227220000 -s 2 -d -1 -p Slotted-FAMA -e 11 -c 2 -a 0 -i 0 -k MAC -R 100.000000
v -t 12.227220000 -e sim_annotation 12.227220000 17 node 2 sendout packet (Slotted-FAMA) 0
+ -t 12.680080000 -s 2 -d -1 -p Slotted-FAMA -e 11 -c 2 -a 0 -i 0 -k MAC 
- -t 12.680080000 -s 2 -d -1 -p Slotted-FAMA -e 11 -c 2 -a 0 -i 0 -k MAC
h -t 12.680080000 -s 2 -d -1 -p Slotted-FAMA -e 11 -c 2 -a 0 -i 0 -k MAC -R 100.000000
v -t 12.680080000 -e sim_annotation 12.680080000 18 node 2 sendout packet (Slotted-FAMA) 0
+ -t 13.132940000 -s 2 -d -1 -p Slotted-FAMA -e 11 -c 2 -a 0 -i 0 -k MAC 
- -t 13.132940000 -s 2 -d -1 -p Slotted-FAMA -e 11 -c 2 -a 0 -i 0 -k MAC
h -t 13.132940000 -s 2 -d -1 -p Slotted-FAMA -e 11 -c 2 -a 0 -i 0 -k MAC -R 100.000000
v -t 13.132940000 -e sim_annotation 13.132940000 19 node 2 sendout packet (Slotted-FAMA) 0
+ -t 13.510323333 -s 2 -d -1 -p Slotted-FAMA -e 11 -c 2 -a 0 -i 0 -k MAC 
- -t 13.510323333 -s 2 -d -1 -p Slotted-FAMA -e 11 -c 2 -a 0 -i 0 -k MAC
h -t 13.510323333 -s 2 -d -1 -p Slotted-FAMA -e 11 -c 2 -a 0 -i 0 -k MAC -R 100.000000
v -t 13.510323333 -e sim_annotation 13.510323333 20 node 2 sendout packet (Slotted-FAMA) 0
+ -t 14.189613333 -s 2 -d -1 -p Slotted-FAMA -e 11 -c 2 -a 0 -i 0 -k MAC 
- -t 14.189613333 -s 2 -d -1 -p Slotted-FAMA -e 11 -c 2 -a 0 -i 0 -k MAC
h -t 14.189613333 -s 2 -d -1 -p Slotted-FAMA -e 11 -c 2 -a 0 -i 0 -k MAC -R 100.000000
v -t 14.189613333 -e sim_annotation 14.189613333 21 node 2 sendout packet (Slotted-FAMA) 0
n -t 14.200000 -s 3 -x 62.571624 -y 37.655704 -U 9.000831 -V 12.111429 -T 2.331168
+ -t 14.944380000 -s 2 -d -1 -p Slotted-FAMA -e 11 -c 2 -a 0 -i 0 -k MAC 
- -t 14.944380000 -s 2 -d -1 -p Slotted-FAMA -e 11 -c 2 -a 0 -i 0 -k MAC
h -t 14.944380000 -s 2 -d -1 -p Slotted-FAMA -e 11 -c 2 -a 0 -i 0 -k MAC -R 100.000000
v -t 14.944380000 -e sim_annotation 14.944380000 22 node 2 sendout packet (Slotted-FAMA) 0
+ -t 15.623670000 -s 2 -d -1 -p Slotted-FAMA -e 11 -c 2 -a 0 -i 0 -k MAC 
- -t 15.623670000 -s 2 -d -1 -p Slotted-FAMA -e 11 -c 2 -a 0 -i 0 -k MAC
h -t 15.623670000 -s 2 -d -1 -p Slotted-FAMA -e 11 -c 2 -a 0 -i 0 -k MAC -R 100.000000
v -t 15.623670000 -e sim_annotation 15.623670000 23 node 2 sendout packet (Slotted-FAMA) 0
+ -t 16.227483333 -s 2 -d -1 -p Slotted-FAMA -e 11 -c 2 -a 0 -i 0 -k MAC 
- -t 16.227483333 -s 2 -d -1 -p Slotted-FAMA -e 11 -c 2 -a 0 -i 0 -k MAC
h -t 16.227483333 -s 2 -d -1 -p Slotted-FAMA -e 11 -c 2 -a 0 -i 0 -k MAC -R 100.000000
v -t 16.227483333 -e sim_annotation 16.227483333 24 node 2 sendout packet (Slotted-FAMA) 0
n -t 16.600000 -s 3 -x 83.554074 -y 65.889480 -U -14.059359 -V -6.206431 -T 1.853849
+ -t 16.680343333 -s 2 -d -1 -p Slotted-FAMA -e 11 -c 2 -a 0 -i 0 -k MAC 
- -t 16.680343333 -s 2 -d -1 -p Slotted-FAMA -e 11 -c 2 -a 0 -i 0 -k MAC
h -t 16.680343333 -s 2 -d -1 -p Slotted-FAMA -e 11 -c 2 -a 0 -i 0 -k MAC -R 100.000000
v -t 16.680343333 -e sim_annotation 16.680343333 25 node 2 sendout packet (Slotted-FAMA) 0
+ -t 17.208680000 -s 2 -d -1 -p Slotted-FAMA -e 11 -c 2 -a 0 -i 0 -k MAC 
- -t 17.208680000 -s 2 -d -1 -p Slotted-FAMA -e 11 -c 2 -a 0 -i 0 -k MAC
h -t 17.208680000 -s 2 -d -1 -p Slotted-FAMA -e 11 -c 2 -a 0 -i 0 -k MAC -R 100.000000
v -t 17.208680000 -e sim_annotation 17.208680000 26 node 2 sendout packet (Slotted-FAMA) 0
+ -t 17.812493333 -s 2 -d -1 -p Slotted-FAMA -e 11 -c 2 -a 0 -i 0 -k MAC 
- -t 17.812493333 -s 2 -d -1 -p Slotted-FAMA -e 11 -c 2 -a 0 -i 0 -k MAC
h -t 17.812493333 -s 2 -d -1 -p Slotted-FAMA -e 11 -c 2 -a 0 -i 0 -k MAC -R 100.000000
v -t 17.812493333 -e sim_annotation 17.812493333 27 node 2 sendout packet (Slotted-FAMA) 0
+ -t 18.340830000 -s 2 -d -1 -p Slotted-FAMA -e 11 -c 2 -a 0 -i 0 -k MAC 
- -t 18.340830000 -s 2 -d -1 -p Slotted-FAMA -e 11 -c 2 -a 0 -i 0 -k MAC
h -t 18.340830000 -s 2 -d -1 -p Slotted-FAMA -e 11 -c 2 -a 0 -i 0 -k MAC -R 100.000000
v -t 18.340830000 -e sim_annotation 18.340830000 28 node 2 sendout packet (Slotted-FAMA) 0
n -t 18.600000 -s 3 -x 57.490148 -y 54.383695 -U -12.638815 -V -4.170595 -T 3.974355
+ -t 18.869166667 -s 2 -d -1 -p Slotted-FAMA -e 11 -c 2 -a 0 -i 0 -k MAC 
- -t 18.869166667 -s 2 -d -1 -p Slotted-FAMA -e 11 -c 2 -a 0 -i 0 -k MAC
h -t 18.869166667 -s 2 -d -1 -p Slotted-FAMA -e 11 -c 2 -a 0 -i 0 -k MAC -R 100.000000
v -t 18.869166667 -e sim_annotation 18.869166667 29 node 2 sendout packet (Slotted-FAMA) 0
+ -t 19.322026667 -s 2 -d -1 -p Slotted-FAMA -e 11 -c 2 -a 0 -i 0 -k MAC 
- -t 19.322026667 -s 2 -d -1 -p Slotted-FAMA -e 11 -c 2 -a 0 -i 0 -k MAC
h -t 19.322026667 -s 2 -d -1 -p Slotted-FAMA -e 11 -c 2 -a 0 -i 0 -k MAC -R 100.000000
v -t 19.322026667 -e sim_annotation 19.322026667 30 node 2 sendout packet (Slotted-FAMA) 0
+ -t 19.925840000 -s 2 -d -1 -p Slotted-FAMA -e 11 -c 2 -a 0 -i 0 -k MAC 
- -t 19.925840000 -s 2 -d -1 -p Slotted-FAMA -e 11 -c 2 -a 0 -i 0 -k MAC
h -t 19.925840000 -s 2 -d -1 -p Slotted-FAMA -e 11 -c 2 -a 0 -i 0 -k MAC -R 100.000000
v -t 19.925840000 -e sim_annotation 19.925840000 31 node 2 sendout packet (Slotted-FAMA) 0
+ -t 20.378700000 -s 2 -d -1 -p Slotted-FAMA -e 11 -c 2 -a 0 -i 0 -k MAC 
- -t 20.378700000 -s 2 -d -1 -p Slotted-FAMA -e 11 -c 2 -a 0 -i 0 -k MAC
h -t 20.378700000 -s 2 -d -1 -p Slotted-FAMA -e 11 -c 2 -a 0 -i 0 -k MAC -R 100.000000
v -t 20.378700000 -e sim_annotation 20.378700000 32 node 2 sendout packet (Slotted-FAMA) 0
+ -t 21.133466667 -s 2 -d -1 -p Slotted-FAMA -e 11 -c 2 -a 0 -i 0 -k MAC 
- -t 21.133466667 -s 2 -d -1 -p Slotted-FAMA -e 11 -c 2 -a 0 -i 0 -k MAC
h -t 21.133466667 -s 2 -d -1 -p Slotted-FAMA -e 11 -c 2 -a 0 -i 0 -k MAC -R 100.000000
v -t 21.133466667 -e sim_annotation 21.133466667 33 node 2 sendout packet (Slotted-FAMA) 0
+ -t 21.586326667 -s 2 -d -1 -p Slotted-FAMA -e 11 -c 2 -a 0 -i 0 -k MAC 
- -t 21.586326667 -s 2 -d -1 -p Slotted-FAMA -e 11 -c 2 -a 0 -i 0 -k MAC
h -t 21.586326667 -s 2 -d -1 -p Slotted-FAMA -e 11 -c 2 -a 0 -i 0 -k MAC -R 100.000000
v -t 21.586326667 -e sim_annotation 21.586326667 34 node 2 sendout packet (Slotted-FAMA) 0
+ -t 22.190140000 -s 2 -d -1 -p Slotted-FAMA -e 11 -c 2 -a 0 -i 0 -k MAC 
- -t 22.190140000 -s 2 -d -1 -p Slotted-FAMA -e 11 -c 2 -a 0 -i 0 -k MAC
h -t 22.190140000 -s 2 -d -1 -p Slotted-FAMA -e 11 -c 2 -a 0 -i 0 -k MAC -R 100.000000
v -t 22.190140000 -e sim_annotation 22.190140000 35 node 2 sendout packet (Slotted-FAMA) 0
n -t 22.600000 -s 3 -x 7.259011 -y 37.808269 -U 8.725307 -V 6.228558 -T 7.704850
+ -t 22.944906667 -s 2 -d -1 -p Slotted-FAMA -e 11 -c 2 -a 0 -i 0 -k MAC 
- -t 22.944906667 -s 2 -d -1 -p Slotted-FAMA -e 11 -c 2 -a 0 -i 0 -k MAC
h -t 22.944906667 -s 2 -d -1 -p Slotted-FAMA -e 11 -c 2 -a 0 -i 0 -k MAC -R 100.000000
v -t 22.944906667 -e sim_annotation 22.944906667 36 node 2 sendout packet (Slotted-FAMA) 0
+ -t 23.473243333 -s 2 -d -1 -p Slotted-FAMA -e 11 -c 2 -a 0 -i 0 -k MAC 
- -t 23.473243333 -s 2 -d -1 -p Slotted-FAMA -e 11 -c 2 -a 0 -i 0 -k MAC
h -t 23.473243333 -s 2 -d -1 -p Slotted-FAMA -e 11 -c 2 -a 0 -i 0 -k MAC -R 100.000000
v -t 23.473243333 -e sim_annotation 23.473243333 37 node 2 sendout packet (Slotted-FAMA) 0
+ -t 24.152533333 -s 2 -d -1 -p Slotted-FAMA -e 11 -c 2 -a 0 -i 0 -k MAC 
- -t 24.152533333 -s 2 -d -1 -p Slotted-FAMA -e 11 -c 2 -a 0 -i 0 -k MAC
h -t 24.152533333 -s 2 -d -1 -p Slotted-FAMA -e 11 -c 2 -a 0 -i 0 -k MAC -R 100.000000
v -t 24.152533333 -e sim_annotation 24.152533333 38 node 2 sendout packet (Slotted-FAMA) 0
+ -t 24.907300000 -s 2 -d -1 -p Slotted-FAMA -e 11 -c 2 -a 0 -i 0 -k MAC 
- -t 24.907300000 -s 2 -d -1 -p Slotted-FAMA -e 11 -c 2 -a 0 -i 0 -k MAC
h -t 24.907300000 -s 2 -d -1 -p Slotted-FAMA -e 11 -c 2 -a 0 -i 0 -k MAC -R 100.000000
v -t 24.907300000 -e sim_annotation 24.907300000 39 node 2 sendout packet (Slotted-FAMA) 0
+ -t 25.360160000 -s 2 -d -1 -p Slotted-FAMA -e 11 -c 2 -a 0 -i 0 -k MAC 
- -t 25.360160000 -s 2 -d -1 -p Slotted-FAMA -e 11 -c 2 -a 0 -i 0 -k MAC
h -t 25.360160000 -s 2 -d -1 -p Slotted-FAMA -e 11 -c 2 -a 0 -i 0 -k MAC -R 100.000000
v -t 25.360160000 -e sim_annotation 25.360160000 40 node 2 sendout packet (Slotted-FAMA) 0
+ -t 25.888496667 -s 2 -d -1 -p Slotted-FAMA -e 11 -c 2 -a 0 -i 0 -k MAC 
- -t 25.888496667 -s 2 -d -1 -p Slotted-FAMA -e 11 -c 2 -a 0 -i 0 -k MAC
h -t 25.888496667 -s 2 -d -1 -p Slotted-FAMA -e 11 -c 2 -a 0 -i 0 -k MAC -R 100.000000
v -t 25.888496667 -e sim_annotation 25.888496667 41 node 2 sendout packet (Slotted-FAMA) 0
+ -t 26.492310000 -s 2 -d -1 -p Slotted-FAMA -e 11 -c 2 -a 0 -i 0 -k MAC 
- -t 26.492310000 -s 2 -d -1 -p Slotted-FAMA -e 11 -c 2 -a 0 -i 0 -k MAC
h -t 26.492310000 -s 2 -d -1 -p Slotted-FAMA -e 11 -c 2 -a 0 -i 0 -k MAC -R 100.000000
v -t 26.492310000 -e sim_annotation 26.492310000 42 node 2 sendout packet (Slotted-FAMA) 0
+ -t 27.247076667 -s 2 -d -1 -p Slotted-FAMA -e 11 -c 2 -a 0 -i 0 -k MAC 
- -t 27.247076667 -s 2 -d -1 -p Slotted-FAMA -e 11 -c 2 -a 0 -i 0 -k MAC
h -t 27.247076667 -s 2 -d -1 -p Slotted-FAMA -e 11 -c 2 -a 0 -i 0 -k MAC -R 100.000000
v -t 27.247076667 -e sim_annotation 27.247076667 43 node 2 sendout packet (Slotted-FAMA) 0
+ -t 27.624460000 -s 2 -d -1 -p Slotted-FAMA -e 11 -c 2 -a 0 -i 0 -k MAC 
- -t 27.624460000 -s 2 -d -1 -p Slotted-FAMA -e 11 -c 2 -a 0 -i 0 -k MAC
h -t 27.624460000 -s 2 -d -1 -p Slotted-FAMA -e 11 -c 2 -a 0 -i 0 -k MAC -R 100.000000
v -t 27.624460000 -e sim_annotation 27.624460000 44 node 2 sendout packet (Slotted-FAMA) 0
+ -t 28.379226667 -s 2 -d -1 -p Slotted-FAMA -e 11 -c 2 -a 0 -i 0 -k MAC 
- -t 28.379226667 -s 2 -d -1 -p Slotted-FAMA -e 11 -c 2 -a 0 -i 0 -k MAC
h -t 28.379226667 -s 2 -d -1 -p Slotted-FAMA -e 11 -c 2 -a 0 -i 0 -k MAC -R 100.000000
v -t 28.379226667 -e sim_annotation 28.379226667 45 node 2 sendout packet (Slotted-FAMA) 0
+ -t 28.832086667 -s 2 -d -1 -p Slotted-FAMA -e 11 -c 2 -a 0 -i 0 -k MAC 
- -t 28.832086667 -s 2 -d -1 -p Slotted-FAMA -e 11 -c 2 -a 0 -i 0 -k MAC
h -t 28.832086667 -s 2 -d -1 -p Slotted-FAMA -e 11 -c 2 -a 0 -i 0 -k MAC -R 100.000000
v -t 28.832086667 -e sim_annotation 28.832086667 46 node 2 sendout packet (Slotted-FAMA) 0
+ -t 29.284946667 -s 2 -d -1 -p Slotted-FAMA -e 11 -c 2 -a 0 -i 0 -k MAC 
- -t 29.284946667 -s 2 -d -1 -p Slotted-FAMA -e 11 -c 2 -a 0 -i 0 -k MAC
h -t 29.284946667 -s 2 -d -1 -p Slotted-FAMA -e 11 -c 2 -a 0 -i 0 -k MAC -R 100.000000
v -t 29.284946667 -e sim_annotation 29.284946667 47 node 2 sendout packet (Slotted-FAMA) 0
+ -t 29.888760000 -s 2 -d -1 -p Slotted-FAMA -e 11 -c 2 -a 0 -i 0 -k MAC 
- -t 29.888760000 -s 2 -d -1 -p Slotted-FAMA -e 11 -c 2 -a 0 -i 0 -k MAC
h -t 29.888760000 -s 2 -d -1 -p Slotted-FAMA -e 11 -c 2 -a 0 -i 0 -k MAC -R 100.000000
v -t 29.888760000 -e sim_annotation 29.888760000 48 node 2 sendout packet (Slotted-FAMA) 0
n -t 30.400000 -s 3 -x 74.486193 -y 85.798377 -U -5.273014 -V -9.569023 -T 8.403893
+ -t 30.492573333 -s 2 -d -1 -p Slotted-FAMA -e 11 -c 2 -a 0 -i 0 -k MAC 
- -t 30.492573333 -s 2 -d -1 -p Slotted-FAMA -e 11 -c 2 -a 0 -i 0 -k MAC
h -t 30.492573333 -s 2 -d -1 -p Slotted-FAMA -e 11 -c 2 -a 0 -i 0 -k MAC -R 100.000000
v -t 30.492573333 -e sim_annotation 30.492573333 49 node 2 sendout packet (Slotted-FAMA) 0
+ -t 30.945433333 -s 2 -d -1 -p Slotted-FAMA -e 11 -c 2 -a 0 -i 0 -k MAC 
- -t 30.945433333 -s 2 -d -1 -p Slotted-FAMA -e 11 -c 2 -a 0 -i 0 -k MAC
h -t 30.945433333 -s 2 -d -1 -p Slotted-FAMA -e 11 -c 2 -a 0 -i 0 -k MAC -R 100.000000
v -t 30.945433333 -e sim_annotation 30.945433333 50 node 2 sendout packet (Slotted-FAMA) 0
+ -t 31.473770000 -s 2 -d -1 -p Slotted-FAMA -e 11 -c 2 -a 0 -i 0 -k MAC 
- -t 31.473770000 -s 2 -d -1 -p Slotted-FAMA -e 11 -c 2 -a 0 -i 0 -k MAC
h -t 31.473770000 -s 2 -d -1 -p Slotted-FAMA -e 11 -c 2 -a 0 -i 0 -k MAC -R 100.000000
v -t 31.473770000 -e sim_annotation 31.473770000 51 node 2 sendout packet (Slotted-FAMA) 0
+ -t 31.851153333 -s 2 -d -1 -p Slotted-FAMA -e 11 -c 2 -a 0 -i 0 -k MAC 
- -t 31.851153333 -s 2 -d -1 -p Slotted-FAMA -e 11 -c 2 -a 0 -i 0 -k MAC
h -t 31.851153333 -s 2 -d -1 -p Slotted-FAMA -e 11 -c 2 -a 0 -i 0 -k MAC -R 100.000000
v -t 31.851153333 -e sim_annotation 31.851153333 52 node 2 sendout packet (Slotted-FAMA) 0
+ -t 32.153060000 -s 2 -d -1 -p Slotted-FAMA -e 11 -c 2 -a 0 -i 0 -k MAC 
- -t 32.153060000 -s 2 -d -1 -p Slotted-FAMA -e 11 -c 2 -a 0 -i 0 -k MAC
h -t 32.153060000 -s 2 -d -1 -p Slotted-FAMA -e 11 -c 2 -a 0 -i 0 -k MAC -R 100.000000
v -t 32.153060000 -e sim_annotation 32.153060000 53 node 2 sendout packet (Slotted-FAMA) 0
+ -t 32.756873333 -s 2 -d -1 -p Slotted-FAMA -e 11 -c 2 -a 0 -i 0 -k MAC 
- -t 32.756873333 -s 2 -d -1 -p Slotted-FAMA -e 11 -c 2 -a 0 -i 0 -k MAC
h -t 32.756873333 -s 2 -d -1 -p Slotted-FAMA -e 11 -c 2 -a 0 -i 0 -k MAC -R 100.000000
v -t 32.756873333 -e sim_annotation 32.756873333 54 node 2 sendout packet (Slotted-FAMA) 0
+ -t 33.058780000 -s 2 -d -1 -p Slotted-FAMA -e 11 -c 2 -a 0 -i 0 -k MAC 
- -t 33.058780000 -s 2 -d -1 -p Slotted-FAMA -e 11 -c 2 -a 0 -i 0 -k MAC
h -t 33.058780000 -s 2 -d -1 -p Slotted-FAMA -e 11 -c 2 -a 0 -i 0 -k MAC -R 100.000000
v -t 33.058780000 -e sim_annotation 33.058780000 55 node 2 sendout packet (Slotted-FAMA) 0
+ -t 33.662593333 -s 2 -d -1 -p Slotted-FAMA -e 11 -c 2 -a 0 -i 0 -k MAC 
- -t 33.662593333 -s 2 -d -1 -p Slotted-FAMA -e 11 -c 2 -a 0 -i 0 -k MAC
h -t 33.662593333 -s 2 -d -1 -p Slotted-FAMA -e 11 -c 2 -a 0 -i 0 -k MAC -R 100.000000
v -t 33.662593333 -e sim_annotation 33.662593333 56 node 2 sendout packet (Slotted-FAMA) 0
+ -t 34.190930000 -s 2 -d -1 -p Slotted-FAMA -e 11 -c 2 -a 0 -i 0 -k MAC 
- -t 34.190930000 -s 2 -d -1 -p Slotted-FAMA -e 11 -c 2 -a 0 -i 0 -k MAC
h -t 34.190930000 -s 2 -d -1 -p Slotted-FAMA -e 11 -c 2 -a 0 -i 0 -k MAC -R 100.000000
v -t 34.190930000 -e sim_annotation 34.190930000 57 node 2 sendout packet (Slotted-FAMA) 0
+ -t 34.945696667 -s 2 -d -1 -p Slotted-FAMA -e 11 -c 2 -a 0 -i 0 -k MAC 
- -t 34.945696667 -s 2 -d -1 -p Slotted-FAMA -e 11 -c 2 -a 0 -i 0 -k MAC
h -t 34.945696667 -s 2 -d -1 -p Slotted-FAMA -e 11 -c 2 -a 0 -i 0 -k MAC -R 100.000000
v -t 34.945696667 -e sim_annotation 34.945696667 58 node 2 sendout packet (Slotted-FAMA) 0
+ -t 35.323080000 -s 2 -d -1 -p Slotted-FAMA -e 11 -c 2 -a 0 -i 0 -k MAC 
- -t 35.323080000 -s 2 -d -1 -p Slotted-FAMA -e 11 -c 2 -a 0 -i 0 -k MAC
h -t 35.323080000 -s 2 -d -1 -p Slotted-FAMA -e 11 -c 2 -a 0 -i 0 -k MAC -R 100.000000
v -t 35.323080000 -e sim_annotation 35.323080000 59 node 2 sendout packet (Slotted-FAMA) 0
+ -t 35.851416667 -s 2 -d -1 -p Slotted-FAMA -e 11 -c 2 -a 0 -i 0 -k MAC 
- -t 35.851416667 -s 2 -d -1 -p Slotted-FAMA -e 11 -c 2 -a 0 -i 0 -k MAC
h -t 35.851416667 -s 2 -d -1 -p Slotted-FAMA -e 11 -c 2 -a 0 -i 0 -k MAC -R 100.000000
v -t 35.851416667 -e sim_annotation 35.851416667 60 node 2 sendout packet (Slotted-FAMA) 0
+ -t 36.304276667 -s 2 -d -1 -p Slotted-FAMA -e 11 -c 2 -a 0 -i 0 -k MAC 
- -t 36.304276667 -s 2 -d -1 -p Slotted-FAMA -e 11 -c 2 -a 0 -i 0 -k MAC
h -t 36.304276667 -s 2 -d -1 -p Slotted-FAMA -e 11 -c 2 -a 0 -i 0 -k MAC -R 100.000000
v -t 36.304276667 -e sim_annotation 36.304276667 61 node 2 sendout packet (Slotted-FAMA) 0
+ -t 36.832613333 -s 2 -d -1 -p Slotted-FAMA -e 11 -c 2 -a 0 -i 0 -k MAC 
- -t 36.832613333 -s 2 -d -1 -p Slotted-FAMA -e 11 -c 2 -a 0 -i 0 -k MAC
h -t 36.832613333 -s 2 -d -1 -p Slotted-FAMA -e 11 -c 2 -a 0 -i 0 -k MAC -R 100.000000
v -t 36.832613333 -e sim_annotation 36.832613333 62 node 2 sendout packet (Slotted-FAMA) 0
+ -t 37.285473333 -s 2 -d -1 -p Slotted-FAMA -e 11 -c 2 -a 0 -i 0 -k MAC 
- -t 37.285473333 -s 2 -d -1 -p Slotted-FAMA -e 11 -c 2 -a 0 -i 0 -k MAC
h -t 37.285473333 -s 2 -d -1 -p Slotted-FAMA -e 11 -c 2 -a 0 -i 0 -k MAC -R 100.000000
v -t 37.285473333 -e sim_annotation 37.285473333 63 node 2 sendout packet (Slotted-FAMA) 0
+ -t 37.813810000 -s 2 -d -1 -p Slotted-FAMA -e 11 -c 2 -a 0 -i 0 -k MAC 
- -t 37.813810000 -s 2 -d -1 -p Slotted-FAMA -e 11 -c 2 -a 0 -i 0 -k MAC
h -t 37.813810000 -s 2 -d -1 -p Slotted-FAMA -e 11 -c 2 -a 0 -i 0 -k MAC -R 100.000000
v -t 37.813810000 -e sim_annotation 37.813810000 64 node 2 sendout packet (Slotted-FAMA) 0
+ -t 38.342146667 -s 2 -d -1 -p Slotted-FAMA -e 11 -c 2 -a 0 -i 0 -k MAC 
- -t 38.342146667 -s 2 -d -1 -p Slotted-FAMA -e 11 -c 2 -a 0 -i 0 -k MAC
h -t 38.342146667 -s 2 -d -1 -p Slotted-FAMA -e 11 -c 2 -a 0 -i 0 -k MAC -R 100.000000
v -t 38.342146667 -e sim_annotation 38.342146667 65 node 2 sendout packet (Slotted-FAMA) 0
+ -t 38.870483333 -s 2 -d -1 -p Slotted-FAMA -e 11 -c 2 -a 0 -i 0 -k MAC 
- -t 38.870483333 -s 2 -d -1 -p Slotted-FAMA -e 11 -c 2 -a 0 -i 0 -k MAC
h -t 38.870483333 -s 2 -d -1 -p Slotted-FAMA -e 11 -c 2 -a 0 -i 0 -k MAC -R 100.000000
v -t 38.870483333 -e sim_annotation 38.870483333 66 node 2 sendout packet (Slotted-FAMA) 0
n -t 39.000000 -s 3 -x 30.172345 -y 5.381331 -U 11.246559 -V 13.753141 -T 3.076220
+ -t 39.474296667 -s 2 -d -1 -p Slotted-FAMA -e 11 -c 2 -a 0 -i 0 -k MAC 
- -t 39.474296667 -s 2 -d -1 -p Slotted-FAMA -e 11 -c 2 -a 0 -i 0 -k MAC
h -t 39.474296667 -s 2 -d -1 -p Slotted-FAMA -e 11 -c 2 -a 0 -i 0 -k MAC -R 100.000000
v -t 39.474296667 -e sim_annotation 39.474296667 67 node 2 sendout packet (Slotted-FAMA) 0
+ -t 39.927156667 -s 2 -d -1 -p Slotted-FAMA -e 11 -c 2 -a 0 -i 0 -k MAC 
- -t 39.927156667 -s 2 -d -1 -p Slotted-FAMA -e 11 -c 2 -a 0 -i 0 -k MAC
h -t 39.927156667 -s 2 -d -1 -p Slotted-FAMA -e 11 -c 2 -a 0 -i 0 -k MAC -R 100.000000
v -t 39.927156667 -e sim_annotation 39.927156667 68 node 2 sendout packet (Slotted-FAMA) 0
+ -t 40.455493333 -s 2 -d -1 -p Slotted-FAMA -e 11 -c 2 -a 0 -i 0 -k MAC 
- -t 40.455493333 -s 2 -d -1 -p Slotted-FAMA -e 11 -c 2 -a 0 -i 0 -k MAC
h -t 40.455493333 -s 2 -d -1 -p Slotted-FAMA -e 11 -c 2 -a 0 -i 0 -k MAC -R 100.000000
v -t 40.455493333 -e sim_annotation 40.455493333 69 node 2 sendout packet (Slotted-FAMA) 0
+ -t 41.134783333 -s 2 -d -1 -p Slotted-FAMA -e 11 -c 2 -a 0 -i 0 -k MAC 
- -t 41.134783333 -s 2 -d -1 -p Slotted-FAMA -e 11 -c 2 -a 0 -i 0 -k MAC
h -t 41.134783333 -s 2 -d -1 -p Slotted-FAMA -e 11 -c 2 -a 0 -i 0 -k MAC -R 100.000000
v -t 41.134783333 -e sim_annotation 41.134783333 70 node 2 sendout packet (Slotted-FAMA) 0
+ -t 41.512166667 -s 2 -d -1 -p Slotted-FAMA -e 11 -c 2 -a 0 -i 0 -k MAC 
- -t 41.512166667 -s 2 -d -1 -p Slotted-FAMA -e 11 -c 2 -a 0 -i 0 -k MAC
h -t 41.512166667 -s 2 -d -1 -p Slotted-FAMA -e 11 -c 2 -a 0 -i 0 -k MAC -R 100.000000
v -t 41.512166667 -e sim_annotation 41.512166667 71 node 2 sendout packet (Slotted-FAMA) 0
+ -t 42.040503333 -s 2 -d -1 -p Slotted-FAMA -e 11 -c 2 -a 0 -i 0 -k MAC 
- -t 42.040503333 -s 2 -d -1 -p Slotted-FAMA -e 11 -c 2 -a 0 -i 0 -k MAC
h -t 42.040503333 -s 2 -d -1 -p Slotted-FAMA -e 11 -c 2 -a 0 -i 0 -k MAC -R 100.000000
v -t 42.040503333 -e sim_annotation 42.040503333 72 node 2 sendout packet (Slotted-FAMA) 0
n -t 42.200000 -s 3 -x 64.769239 -y 47.689022 -U -12.004445 -V -8.357208 -T 5.138499
+ -t 42.719793333 -s 2 -d -1 -p Slotted-FAMA -e 11 -c 2 -a 0 -i 0 -k MAC 
- -t 42.719793333 -s 2 -d -1 -p Slotted-FAMA -e 11 -c 2 -a 0 -i 0 -k MAC
h -t 42.719793333 -s 2 -d -1 -p Slotted-FAMA -e 11 -c 2 -a 0 -i 0 -k MAC -R 100.000000
v -t 42.719793333 -e sim_annotation 42.719793333 73 node 2 sendout packet (Slotted-FAMA) 0
+ -t 43.172653333 -s 2 -d -1 -p Slotted-FAMA -e 11 -c 2 -a 0 -i 0 -k MAC 
- -t 43.172653333 -s 2 -d -1 -p Slotted-FAMA -e 11 -c 2 -a 0 -i 0 -k MAC
h -t 43.172653333 -s 2 -d -1 -p Slotted-FAMA -e 11 -c 2 -a 0 -i 0 -k MAC -R 100.000000
v -t 43.172653333 -e sim_annotation 43.172653333 74 node 2 sendout packet (Slotted-FAMA) 0
+ -t 43.625513333 -s 2 -d -1 -p Slotted-FAMA -e 11 -c 2 -a 0 -i 0 -k MAC 
- -t 43.625513333 -s 2 -d -1 -p Slotted-FAMA -e 11 -c 2 -a 0 -i 0 -k MAC
h -t 43.625513333 -s 2 -d -1 -p Slotted-FAMA -e 11 -c 2 -a 0 -i 0 -k MAC -R 100.000000
v -t 43.625513333 -e sim_annotation 43.625513333 75 node 2 sendout packet (Slotted-FAMA) 0
+ -t 44.153850000 -s 2 -d -1 -p Slotted-FAMA -e 11 -c 2 -a 0 -i 0 -k MAC 
- -t 44.153850000 -s 2 -d -1 -p Slotted-FAMA -e 11 -c 2 -a 0 -i 0 -k MAC
h -t 44.153850000 -s 2 -d -1 -p Slotted-FAMA -e 11 -c 2 -a 0 -i 0 -k MAC -R 100.000000
v -t 44.153850000 -e sim_annotation 44.153850000 76 node 2 sendout packet (Slotted-FAMA) 0
+ -t 44.606710000 -s 2 -d -1 -p Slotted-FAMA -e 11 -c 2 -a 0 -i 0 -k MAC 
- -t 44.606710000 -s 2 -d -1 -p Slotted-FAMA -e 11 -c 2 -a 0 -i 0 -k MAC
h -t 44.606710000 -s 2 -d -1 -p Slotted-FAMA -e 11 -c 2 -a 0 -i 0 -k MAC -R 100.000000
v -t 44.606710000 -e sim_annotation 44.606710000 77 node 2 sendout packet (Slotted-FAMA) 0
+ -t 45.135046667 -s 2 -d -1 -p Slotted-FAMA -e 11 -c 2 -a 0 -i 0 -k MAC 
- -t 45.135046667 -s 2 -d -1 -p Slotted-FAMA -e 11 -c 2 -a 0 -i 0 -k MAC
h -t 45.135046667 -s 2 -d -1 -p Slotted-FAMA -e 11 -c 2 -a 0 -i 0 -k MAC -R 100.000000
v -t 45.135046667 -e sim_annotation 45.135046667 78 node 2 sendout packet (Slotted-FAMA) 0
+ -t 45.738860000 -s 2 -d -1 -p Slotted-FAMA -e 11 -c 2 -a 0 -i 0 -k MAC 
- -t 45.738860000 -s 2 -d -1 -p Slotted-FAMA -e 11 -c 2 -a 0 -i 0 -k MAC
h -t 45.738860000 -s 2 -d -1 -p Slotted-FAMA -e 11 -c 2 -a 0 -i 0 -k MAC -R 100.000000
v -t 45.738860000 -e sim_annotation 45.738860000 79 node 2 sendout packet (Slotted-FAMA) 0
+ -t 46.267196667 -s 2 -d -1 -p Slotted-FAMA -e 11 -c 2 -a 0 -i 0 -k MAC 
- -t 46.267196667 -s 2 -d -1 -p Slotted-FAMA -e 11 -c 2 -a 0 -i 0 -k MAC
h -t 46.267196667 -s 2 -d -1 -p Slotted-FAMA -e 11 -c 2 -a 0 -i 0 -k MAC -R 100.000000
v -t 46.267196667 -e sim_annotation 46.267196667 80 node 2 sendout packet (Slotted-FAMA) 0
+ -t 46.871010000 -s 2 -d -1 -p Slotted-FAMA -e 11 -c 2 -a 0 -i 0 -k MAC 
- -t 46.871010000 -s 2 -d -1 -p Slotted-FAMA -e 11 -c 2 -a 0 -i 0 -k MAC
h -t 46.871010000 -s 2 -d -1 -p Slotted-FAMA -e 11 -c 2 -a 0 -i 0 -k MAC -R 100.000000
v -t 46.871010000 -e sim_annotation 46.871010000 81 node 2 sendout packet (Slotted-FAMA) 0
+ -t 47.399346667 -s 2 -d -1 -p Slotted-FAMA -e 11 -c 2 -a 0 -i 0 -k MAC 
- -t 47.399346667 -s 2 -d -1 -p Slotted-FAMA -e 11 -c 2 -a 0 -i 0 -k MAC
h -t 47.399346667 -s 2 -d -1 -p Slotted-FAMA -e 11 -c 2 -a 0 -i 0 -k MAC -R 100.000000
v -t 47.399346667 -e sim_annotation 47.399346667 82 node 2 sendout packet (Slotted-FAMA) 0
n -t 47.400000 -s 3 -x 3.084415 -y 4.745519 -U 17.103154 -V 7.229545 -T 2.717203
+ -t 48.078636667 -s 2 -d -1 -p Slotted-FAMA -e 11 -c 2 -a 0 -i 0 -k MAC 
- -t 48.078636667 -s 2 -d -1 -p Slotted-FAMA -e 11 -c 2 -a 0 -i 0 -k MAC
h -t 48.078636667 -s 2 -d -1 -p Slotted-FAMA -e 11 -c 2 -a 0 -i 0 -k MAC -R 100.000000
v -t 48.078636667 -e sim_annotation 48.078636667 83 node 2 sendout packet (Slotted-FAMA) 0
+ -t 48.456020000 -s 2 -d -1 -p Slotted-FAMA -e 11 -c 2 -a 0 -i 0 -k MAC 
- -t 48.456020000 -s 2 -d -1 -p Slotted-FAMA -e 11 -c 2 -a 0 -i 0 -k MAC
h -t 48.456020000 -s 2 -d -1 -p Slotted-FAMA -e 11 -c 2 -a 0 -i 0 -k MAC -R 100.000000
v -t 48.456020000 -e sim_annotation 48.456020000 84 node 2 sendout packet (Slotted-FAMA) 0
+ -t 48.984356667 -s 2 -d -1 -p Slotted-FAMA -e 11 -c 2 -a 0 -i 0 -k MAC 
- -t 48.984356667 -s 2 -d -1 -p Slotted-FAMA -e 11 -c 2 -a 0 -i 0 -k MAC
h -t 48.984356667 -s 2 -d -1 -p Slotted-FAMA -e 11 -c 2 -a 0 -i 0 -k MAC -R 100.000000
v -t 48.984356667 -e sim_annotation 48.984356667 85 node 2 sendout packet (Slotted-FAMA) 0
+ -t 49.588170000 -s 2 -d -1 -p Slotted-FAMA -e 11 -c 2 -a 0 -i 0 -k MAC 
- -t 49.588170000 -s 2 -d -1 -p Slotted-FAMA -e 11 -c 2 -a 0 -i 0 -k MAC
h -t 49.588170000 -s 2 -d -1 -p Slotted-FAMA -e 11 -c 2 -a 0 -i 0 -k MAC -R 100.000000
v -t 49.588170000 -e sim_annotation 49.588170000 86 node 2 sendout packet (Slotted-FAMA) 0
+ -t 50.191983333 -s 2 -d -1 -p Slotted-FAMA -e 11 -c 2 -a 0 -i 0 -k MAC 
- -t 50.191983333 -s 2 -d -1 -p Slotted-FAMA -e 11 -c 2 -a 0 -i 0 -k MAC
h -t 50.191983333 -s 2 -d -1 -p Slotted-FAMA -e 11 -c 2 -a 0 -i 0 -k MAC -R 100.000000
v -t 50.191983333 -e sim_annotation 50.191983333 87 node 2 sendout packet (Slotted-FAMA) 0
n -t 50.200000 -s 3 -x 49.557161 -y 24.389661 -U 9.594251 -V 14.540365 -T 2.919082
+ -t 50.946750000 -s 2 -d -1 -p Slotted-FAMA -e 11 -c 2 -a 0 -i 0 -k MAC 
- -t 50.946750000 -s 2 -d -1 -p Slotted-FAMA -e 11 -c 2 -a 0 -i 0 -k MAC
h -t 50.946750000 -s 2 -d -1 -p Slotted-FAMA -e 11 -c 2 -a 0 -i 0 -k MAC -R 100.000000
v -t 50.946750000 -e sim_annotation 50.946750000 88 node 2 sendout packet (Slotted-FAMA) 0
+ -t 51.399610000 -s 2 -d -1 -p Slotted-FAMA -e 11 -c 2 -a 0 -i 0 -k MAC 
- -t 51.399610000 -s 2 -d -1 -p Slotted-FAMA -e 11 -c 2 -a 0 -i 0 -k MAC
h -t 51.399610000 -s 2 -d -1 -p Slotted-FAMA -e 11 -c 2 -a 0 -i 0 -k MAC -R 100.000000