n -t * -s 0  -x 450 -y 0 -Z 0 -z 10  -v circle -c green
n -t * -s 1  -x 400 -y 0 -Z 0 -z 10  -v circle -c green
n -t * -s 2  -x 360 -y 0 -Z 0 -z 10  -v circle -c green
n -t * -s 3  -x 320 -y 0 -Z 0 -z 10  -v circle -c green
n -t * -s 4  -x 280 -y 0 -Z 0 -z 10  -v circle -c green
n -t * -s 5  -x 250 -y 0 -Z 0 -z 10  -v circle -c green
V -t * -v 1.0a5 -a 0
W -t * -x 1000 -y 10
A -t * -n 1 -p 0 -o 0xffffffff -c 31 -a 1
A -t * -h 1 -m 2147483647 -s 0
+ -t 1.330025000 -s 5 -d -1 -p vectorbasedforward -e 50 -c 2 -a 0 -i 0 -k MAC 
- -t 1.330025000 -s 5 -d -1 -p vectorbasedforward -e 50 -c 2 -a 0 -i 0 -k MAC
h -t 1.330025000 -s 5 -d -1 -p vectorbasedforward -e 50 -c 2 -a 0 -i 0 -k MAC -R 100.000000
v -t 1.330025000 -e sim_annotation 1.330025000 1 node 5 sendout packet (vectorbasedforward) 0
r -t 1.390025000 -s 4 -d -1 -p vectorbasedforward -e 50 -c 2 -a 0 -i 0 -k MAC -R 100.000000
v -t 1.390025000 -e sim_annotation 1.390025000 2 node 4 receive packet(vectorbasedforward) 0
r -t 1.416691667 -s 3 -d -1 -p vectorbasedforward -e 50 -c 2 -a 0 -i 0 -k MAC -R 100.000000
v -t 1.416691667 -e sim_annotation 1.416691667 3 node 3 receive packet(vectorbasedforward) 0
+ -t 2.004464224 -s 3 -d -1 -p vectorbasedforward -e 50 -c 2 -a 0 -i 0 -k MAC 
- -t 2.004464224 -s 3 -d -1 -p vectorbasedforward -e 50 -c 2 -a 0 -i 0 -k MAC
h -t 2.004464224 -s 3 -d -1 -p vectorbasedforward -e 50 -c 2 -a 0 -i 0 -k MAC -R 100.000000
v -t 2.004464224 -e sim_annotation 2.004464224 4 node 3 sendout packet (vectorbasedforward) 0
r -t 2.071130891 -s 4 -d -1 -p vectorbasedforward -e 50 -c 2 -a 0 -i 0 -k MAC -R 100.000000
v -t 2.071130891 -e sim_annotation 2.071130891 5 node 4 receive packet(vectorbasedforward) 0
r -t 2.071130891 -s 2 -d -1 -p vectorbasedforward -e 50 -c 2 -a 0 -i 0 -k MAC -R 100.000000
v -t 2.071130891 -e sim_annotation 2.071130891 6 node 2 receive packet(vectorbasedforward) 0
r -t 2.091130891 -s 5 -d -1 -p vectorbasedforward -e 50 -c 2 -a 0 -i 0 -k MAC -R 100.000000
v -t 2.091130891 -e sim_annotation 2.091130891 7 node 5 receive packet(vectorbasedforward) 0
r -t 2.097797558 -s 1 -d -1 -p vectorbasedforward -e 50 -c 2 -a 0 -i 0 -k MAC -R 100.000000
v -t 2.097797558 -e sim_annotation 2.097797558 8 node 1 receive packet(vectorbasedforward) 0
+ -t 2.320068360 -s 4 -d -1 -p vectorbasedforward -e 50 -c 2 -a 0 -i 0 -k MAC 
- -t 2.320068360 -s 4 -d -1 -p vectorbasedforward -e 50 -c 2 -a 0 -i 0 -k MAC
h -t 2.320068360 -s 4 -d -1 -p vectorbasedforward -e 50 -c 2 -a 0 -i 0 -k MAC -R 100.000000
v -t 2.320068360 -e sim_annotation 2.320068360 9 node 4 sendout packet (vectorbasedforward) 0
r -t 2.380068360 -s 5 -d -1 -p vectorbasedforward -e 50 -c 2 -a 0 -i 0 -k MAC -R 100.000000
v -t 2.380068360 -e sim_annotation 2.380068360 10 node 5 receive packet(vectorbasedforward) 0
r -t 2.386735027 -s 3 -d -1 -p vectorbasedforward -e 50 -c 2 -a 0 -i 0 -k MAC -R 100.000000
v -t 2.386735027 -e sim_annotation 2.386735027 11 node 3 receive packet(vectorbasedforward) 0
r -t 2.413401693 -s 2 -d -1 -p vectorbasedforward -e 50 -c 2 -a 0 -i 0 -k MAC -R 100.000000
v -t 2.413401693 -e sim_annotation 2.413401693 12 node 2 receive packet(vectorbasedforward) 0
+ -t 2.571727820 -s 1 -d -1 -p vectorbasedforward -e 50 -c 2 -a 0 -i 0 -k MAC 
- -t 2.571727820 -s 1 -d -1 -p vectorbasedforward -e 50 -c 2 -a 0 -i 0 -k MAC
h -t 2.571727820 -s 1 -d -1 -p vectorbasedforward -e 50 -c 2 -a 0 -i 0 -k MAC -R 100.000000
v -t 2.571727820 -e sim_annotation 2.571727820 13 node 1 sendout packet (vectorbasedforward) 0
r -t 2.638394486 -s 2 -d -1 -p vectorbasedforward -e 50 -c 2 -a 0 -i 0 -k MAC -R 100.000000
v -t 2.638394486 -e sim_annotation 2.638394486 14 node 2 receive packet(vectorbasedforward) 0
r -t 2.645061153 -s 0 -d -1 -p vectorbasedforward -e 50 -c 2 -a 0 -i 0 -k MAC -R 100.000000
v -t 2.645061153 -e sim_annotation 2.645061153 15 node 0 receive packet(vectorbasedforward) 0
r -t 2.665061153 -s 3 -d -1 -p vectorbasedforward -e 50 -c 2 -a 0 -i 0 -k MAC -R 100.000000
v -t 2.665061153 -e sim_annotation 2.665061153 16 node 3 receive packet(vectorbasedforward) 0
+ -t 2.925777560 -s 2 -d -1 -p vectorbasedforward -e 50 -c 2 -a 0 -i 0 -k MAC 
- -t 2.925777560 -s 2 -d -1 -p vectorbasedforward -e 50 -c 2 -a 0 -i 0 -k MAC
h -t 2.925777560 -s 2 -d -1 -p vectorbasedforward -e 50 -c 2 -a 0 -i 0 -k MAC -R 100.000000
v -t 2.925777560 -e sim_annotation 2.925777560 17 node 2 sendout packet (vectorbasedforward) 0
r -t 2.992444227 -s 3 -d -1 -p vectorbasedforward -e 50 -c 2 -a 0 -i 0 -k MAC -R 100.000000
v -t 2.992444227 -e sim_annotation 2.992444227 18 node 3 receive packet(vectorbasedforward) 0
r -t 2.992444227 -s 1 -d -1 -p vectorbasedforward -e 50 -c 2 -a 0 -i 0 -k MAC -R 100.000000
v -t 2.992444227 -e sim_annotation 2.992444227 19 node 1 receive packet(vectorbasedforward) 0
r -t 3.019110893 -s 4 -d -1 -p vectorbasedforward -e 50 -c 2 -a 0 -i 0 -k MAC -R 100.000000
v -t 3.019110893 -e sim_annotation 3.019110893 20 node 4 receive packet(vectorbasedforward) 0
r -t 3.025777560 -s 0 -d -1 -p vectorbasedforward -e 50 -c 2 -a 0 -i 0 -k MAC -R 100.000000
v -t 3.025777560 -e sim_annotation 3.025777560 21 node 0 receive packet(vectorbasedforward) 0
+ -t 11.330025000 -s 5 -d -1 -p vectorbasedforward -e 50 -c 2 -a 0 -i 1 -k MAC 
- -t 11.330025000 -s 5 -d -1 -p vectorbasedforward -e 50 -c 2 -a 0 -i 1 -k MAC
h -t 11.330025000 -s 5 -d -1 -p vectorbasedforward -e 50 -c 2 -a 0 -i 1 -k MAC -R 100.000000
v -t 11.330025000 -e sim_annotation 11.330025000 22 node 5 sendout packet (vectorbasedforward) 1
r -t 11.390025000 -s 4 -d -1 -p vectorbasedforward -e 50 -c 2 -a 0 -i 1 -k MAC -R 100.000000
v -t 11.390025000 -e sim_annotation 11.390025000 23 node 4 receive packet(vectorbasedforward) 1
r -t 11.416691667 -s 3 -d -1 -p vectorbasedforward -e 50 -c 2 -a 0 -i 1 -k MAC -R 100.000000
v -t 11.416691667 -e sim_annotation 11.416691667 24 node 3 receive packet(vectorbasedforward) 1
+ -t 12.004464224 -s 3 -d -1 -p vectorbasedforward -e 50 -c 2 -a 0 -i 1 -k MAC 
- -t 12.004464224 -s 3 -d -1 -p vectorbasedforward -e 50 -c 2 -a 0 -i 1 -k MAC
h -t 12.004464224 -s 3 -d -1 -p vectorbasedforward -e 50 -c 2 -a 0 -i 1 -k MAC -R 100.000000
v -t 12.004464224 -e sim_annotation 12.004464224 25 node 3 sendout packet (vectorbasedforward) 1
r -t 12.071130891 -s 4 -d -1 -p vectorbasedforward -e 50 -c 2 -a 0 -i 1 -k MAC -R 100.000000
v -t 12.071130891 -e sim_annotation 12.071130891 26 node 4 receive packet(vectorbasedforward) 1
r -t 12.071130891 -s 2 -d -1 -p vectorbasedforward -e 50 -c 2 -a 0 -i 1 -k MAC -R 100.000000
v -t 12.071130891 -e sim_annotation 12.071130891 27 node 2 receive packet(vectorbasedforward) 1
r -t 12.091130891 -s 5 -d -1 -p vectorbasedforward -e 50 -c 2 -a 0 -i 1 -k MAC -R 100.000000
v -t 12.091130891 -e sim_annotation 12.091130891 28 node 5 receive packet(vectorbasedforward) 1
r -t 12.097797558 -s 1 -d -1 -p vectorbasedforward -e 50 -c 2 -a 0 -i 1 -k MAC -R 100.000000
v -t 12.097797558 -e sim_annotation 12.097797558 29 node 1 receive packet(vectorbasedforward) 1
+ -t 12.320068360 -s 4 -d -1 -p vectorbasedforward -e 50 -c 2 -a 0 -i 1 -k MAC 
- -t 12.320068360 -s 4 -d -1 -p vectorbasedforward -e 50 -c 2 -a 0 -i 1 -k MAC
h -t 12.320068360 -s 4 -d -1 -p vectorbasedforward -e 50 -c 2 -a 0 -i 1 -k MAC -R 100.000000
v -t 12.320068360 -e sim_annotation 12.320068360 30 node 4 sendout packet (vectorbasedforward) 1
r -t 12.380068360 -s 5 -d -1 -p vectorbasedforward -e 50 -c 2 -a 0 -i 1 -k MAC -R 100.000000
v -t 12.380068360 -e sim_annotation 12.380068360 31 node 5 receive packet(vectorbasedforward) 1
r -t 12.386735027 -s 3 -d -1 -p vectorbasedforward -e 50 -c 2 -a 0 -i 1 -k MAC -R 100.000000
v -t 12.386735027 -e sim_annotation 12.386735027 32 node 3 receive packet(vectorbasedforward) 1
r -t 12.413401693 -s 2 -d -1 -p vectorbasedforward -e 50 -c 2 -a 0 -i 1 -k MAC -R 100.000000
v -t 12.413401693 -e sim_annotation 12.413401693 33 node 2 receive packet(vectorbasedforward) 1
+ -t 12.571727820 -s 1 -d -1 -p vectorbasedforward -e 50 -c 2 -a 0 -i 1 -k MAC 
- -t 12.571727820 -s 1 -d -1 -p vectorbasedforward -e 50 -c 2 -a 0 -i 1 -k MAC
h -t 12.571727820 -s 1 -d -1 -p vectorbasedforward -e 50 -c 2 -a 0 -i 1 -k MAC -R 100.000000
v -t 12.571727820 -e sim_annotation 12.571727820 34 node 1 sendout packet (vectorbasedforward) 1
r -t 12.638394486 -s 2 -d -1 -p vectorbasedforward -e 50 -c 2 -a 0 -i 1 -k MAC -R 100.000000
v -t 12.638394486 -e sim_annotation 12.638394486 35 node 2 receive packet(vectorbasedforward) 1
r -t 12.645061153 -s 0 -d -1 -p vectorbasedforward -e 50 -c 2 -a 0 -i 1 -k MAC -R 100.000000
v -t 12.645061153 -e sim_annotation 12.645061153 36 node 0 receive packet(vectorbasedforward) 1
r -t 12.665061153 -s 3 -d -1 -p vectorbasedforward -e 50 -c 2 -a 0 -i 1 -k MAC -R 100.000000
v -t 12.665061153 -e sim_annotation 12.665061153 37 node 3 receive packet(vectorbasedforward) 1
+ -t 12.925777560 -s 2 -d -1 -p vectorbasedforward -e 50 -c 2 -a 0 -i 1 -k MAC 
- -t 12.925777560 -s 2 -d -1 -p vectorbasedforward -e 50 -c 2 -a 0 -i 1 -k MAC
h -t 12.925777560 -s 2 -d -1 -p vectorbasedforward -e 50 -c 2 -a 0 -i 1 -k MAC -R 100.000000
v -t 12.925777560 -e sim_annotation 12.925777560 38 node 2 sendout packet (vectorbasedforward) 1
r -t 12.992444227 -s 3 -d -1 -p vectorbasedforward -e 50 -c 2 -a 0 -i 1 -k MAC -R 100.000000
v -t 12.992444227 -e sim_annotation 12.992444227 39 node 3 receive packet(vectorbasedforward) 1
r -t 12.992444227 -s 1 -d -1 -p vectorbasedforward -e 50 -c 2 -a 0 -i 1 -k MAC -R 100.000000
v -t 12.992444227 -e sim_annotation 12.992444227 40 node 1 receive packet(vectorbasedforward) 1
r -t 13.019110893 -s 4 -d -1 -p vectorbasedforward -e 50 -c 2 -a 0 -i 1 -k MAC -R 100.000000
v -t 13.019110893 -e sim_annotation 13.019110893 41 node 4 receive packet(vectorbasedforward) 1
r -t 13.025777560 -s 0 -d -1 -p vectorbasedforward -e 50 -c 2 -a 0 -i 1 -k MAC -R 100.000000
v -t 13.025777560 -e sim_annotation 13.025777560 42 node 0 receive packet(vectorbasedforward) 1
+ -t 21.330025000 -s 5 -d -1 -p vectorbasedforward -e 50 -c 2 -a 0 -i 2 -k MAC 
- -t 21.330025000 -s 5 -d -1 -p vectorbasedforward -e 50 -c 2 -a 0 -i 2 -k MAC
h -t 21.330025000 -s 5 -d -1 -p vectorbasedforward -e 50 -c 2 -a 0 -i 2 -k MAC -R 100.000000
v -t 21.330025000 -e sim_annotation 21.330025000 43 node 5 sendout packet (vectorbasedforward) 2
r -t 21.390025000 -s 4 -d -1 -p vectorbasedforward -e 50 -c 2 -a 0 -i 2 -k MAC -R 100.000000
v -t 21.390025000 -e sim_annotation 21.390025000 44 node 4 receive packet(vectorbasedforward) 2
r -t 21.416691667 -s 3 -d -1 -p vectorbasedforward -e 50 -c 2 -a 0 -i 2 -k MAC -R 100.000000
v -t 21.416691667 -e sim_annotation 21.416691667 45 node 3 receive packet(vectorbasedforward) 2
+ -t 22.004464224 -s 3 -d -1 -p vectorbasedforward -e 50 -c 2 -a 0 -i 2 -k MAC 
- -t 22.004464224 -s 3 -d -1 -p vectorbasedforward -e 50 -c 2 -a 0 -i 2 -k MAC
h -t 22.004464224 -s 3 -d -1 -p vectorbasedforward -e 50 -c 2 -a 0 -i 2 -k MAC -R 100.000000
v -t 22.004464224 -e sim_annotation 22.004464224 46 node 3 sendout packet (vectorbasedforward) 2
r -t 22.071130891 -s 4 -d -1 -p vectorbasedforward -e 50 -c 2 -a 0 -i 2 -k MAC -R 100.000000
v -t 22.071130891 -e sim_annotation 22.071130891 47 node 4 receive packet(vectorbasedforward) 2
r -t 22.071130891 -s 2 -d -1 -p vectorbasedforward -e 50 -c 2 -a 0 -i 2 -k MAC -R 100.000000
v -t 22.071130891 -e sim_annotation 22.071130891 48 node 2 receive packet(vectorbasedforward) 2
r -t 22.091130891 -s 5 -d -1 -p vectorbasedforward -e 50 -c 2 -a 0 -i 2 -k MAC -R 100.000000
v -t 22.091130891 -e sim_annotation 22.091130891 49 node 5 receive packet(vectorbasedforward) 2
r -t 22.097797558 -s 1 -d -1 -p vectorbasedforward -e 50 -c 2 -a 0 -i 2 -k MAC -R 100.000000
v -t 22.097797558 -e sim_annotation 22.097797558 50 node 1 receive packet(vectorbasedforward) 2
+ -t 22.320068360 -s 4 -d -1 -p vectorbasedforward -e 50 -c 2 -a 0 -i 2 -k MAC 
- -t 22.320068360 -s 4 -d -1 -p vectorbasedforward -e 50 -c 2 -a 0 -i 2 -k MAC
h -t 22.320068360 -s 4 -d -1 -p vectorbasedforward -e 50 -c 2 -a 0 -i 2 -k MAC -R 100.000000
v -t 22.320068360 -e sim_annotation 22.320068360 51 node 4 sendout packet (vectorbasedforward) 2
r -t 22.380068360 -s 5 -d -1 -p vectorbasedforward -e 50 -c 2 -a 0 -i 2 -k MAC -R 100.000000
v -t 22.380068360 -e sim_annotation 22.380068360 52 node 5 receive packet(vectorbasedforward) 2
r -t 22.386735027 -s 3 -d -1 -p vectorbasedforward -e 50 -c 2 -a 0 -i 2 -k MAC -R 100.000000
v -t 22.386735027 -e sim_annotation 22.386735027 53 node 3 receive packet(vectorbasedforward) 2
r -t 22.413401693 -s 2 -d -1 -p vectorbasedforward -e 50 -c 2 -a 0 -i 2 -k MAC -R 100.000000
v -t 22.413401693 -e sim_annotation 22.413401693 54 node 2 receive packet(vectorbasedforward) 2
+ -t 22.571727820 -s 1 -d -1 -p vectorbasedforward -e 50 -c 2 -a 0 -i 2 -k MAC 
- -t 22.571727820 -s 1 -d -1 -p vectorbasedforward -e 50 -c 2 -a 0 -i 2 -k MAC
h -t 22.571727820 -s 1 -d -1 -p vectorbasedforward -e 50 -c 2 -a 0 -i 2 -k MAC -R 100.000000
v -t 22.571727820 -e sim_annotation 22.571727820 55 node 1 sendout packet (vectorbasedforward) 2
r -t 22.638394486 -s 2 -d -1 -p vectorbasedforward -e 50 -c 2 -a 0 -i 2 -k MAC -R 100.000000
v -t 22.638394486 -e sim_annotation 22.638394486 56 node 2 receive packet(vectorbasedforward) 2
r -t 22.645061153 -s 0 -d -1 -p vectorbasedforward -e 50 -c 2 -a 0 -i 2 -k MAC -R 100.000000
v -t 22.645061153 -e sim_annotation 22.645061153 57 node 0 receive packet(vectorbasedforward) 2
r -t 22.665061153 -s 3 -d -1 -p vectorbasedforward -e 50 -c 2 -a 0 -i 2 -k MAC -R 100.000000
v -t 22.665061153 -e sim_annotation 22.665061153 58 node 3 receive packet(vectorbasedforward) 2
+ -t 22.925777560 -s 2 -d -1 -p vectorbasedforward -e 50 -c 2 -a 0 -i 2 -k MAC 
- -t 22.925777560 -s 2 -d -1 -p vectorbasedforward -e 50 -c 2 -a 0 -i 2 -k MAC
h -t 22.925777560 -s 2 -d -1 -p vectorbasedforward -e 50 -c 2 -a 0 -i 2 -k MAC -R 100.000000
v -t 22.925777560 -e sim_annotation 22.925777560 59 node 2 sendout packet (vectorbasedforward) 2
r -t 22.992444227 -s 3 -d -1 -p vectorbasedforward -e 50 -c 2 -a 0 -i 2 -k MAC -R 100.000000
v -t 22.992444227 -e sim_annotation 22.992444227 60 node 3 receive packet(vectorbasedforward) 2
r -t 22.992444227 -s 1 -d -1 -p vectorbasedforward -e 50 -c 2 -a 0 -i 2 -k MAC -R 100.000000
v -t 22.992444227 -e sim_annotation 22.992444227 61 node 1 receive packet(vectorbasedforward) 2
r -t 23.019110893 -s 4 -d -1 -p vectorbasedforward -e 50 -c 2 -a 0 -i 2 -k MAC -R 100.000000
v -t 23.019110893 -e sim_annotation 23.019110893 62 node 4 receive packet(vectorbasedforward) 2
r -t 23.025777560 -s 0 -d -1 -p vectorbasedforward -e 50 -c 2 -a 0 -i 2 -k MAC -R 100.000000
v -t 23.025777560 -e sim_annotation 23.025777560 63 node 0 receive packet(vectorbasedforward) 2
+ -t 31.330025000 -s 5 -d -1 -p vectorbasedforward -e 50 -c 2 -a 0 -i 3 -k MAC 
- -t 31.330025000 -s 5 -d -1 -p vectorbasedforward -e 50 -c 2 -a 0 -i 3 -k MAC
h -t 31.330025000 -s 5 -d -1 -p vectorbasedforward -e 50 -c 2 -a 0 -i 3 -k MAC -R 100.000000
v -t 31.330025000 -e sim_annotation 31.330025000 64 node 5 sendout packet (vectorbasedforward) 3
r -t 31.390025000 -s 4 -d -1 -p vectorbasedforward -e 50 -c 2 -a 0 -i 3 -k MAC -R 100.000000
v -t 31.390025000 -e sim_annotation 31.390025000 65 node 4 receive packet(vectorbasedforward) 3
r -t 31.416691667 -s 3 -d -1 -p vectorbasedforward -e 50 -c 2 -a 0 -i 3 -k MAC -R 100.000000
v -t 31.416691667 -e sim_annotation 31.416691667 66 node 3 receive packet(vectorbasedforward) 3
+ -t 32.004464224 -s 3 -d -1 -p vectorbasedforward -e 50 -c 2 -a 0 -i 3 -k MAC 
- -t 32.004464224 -s 3 -d -1 -p vectorbasedforward -e 50 -c 2 -a 0 -i 3 -k MAC
h -t 32.004464224 -s 3 -d -1 -p vectorbasedforward -e 50 -c 2 -a 0 -i 3 -k MAC -R 100.000000
v -t 32.004464224 -e sim_annotation 32.004464224 67 node 3 sendout packet (vectorbasedforward) 3
r -t 32.071130891 -s 4 -d -1 -p vectorbasedforward -e 50 -c 2 -a 0 -i 3 -k MAC -R 100.000000
v -t 32.071130891 -e sim_annotation 32.071130891 68 node 4 receive packet(vectorbasedforward) 3
r -t 32.071130891 -s 2 -d -1 -p vectorbasedforward -e 50 -c 2 -a 0 -i 3 -k MAC -R 100.000000
v -t 32.071130891 -e sim_annotation 32.071130891 69 node 2 receive packet(vectorbasedforward) 3
r -t 32.091130891 -s 5 -d -1 -p vectorbasedforward -e 50 -c 2 -a 0 -i 3 -k MAC -R 100.000000
v -t 32.091130891 -e sim_annotation 32.091130891 70 node 5 receive packet(vectorbasedforward) 3
r -t 32.097797558 -s 1 -d -1 -p vectorbasedforward -e 50 -c 2 -a 0 -i 3 -k MAC -R 100.000000
v -t 32.097797558 -e sim_annotation 32.097797558 71 node 1 receive packet(vectorbasedforward) 3
+ -t 32.320068360 -s 4 -d -1 -p vectorbasedforward -e 50 -c 2 -a 0 -i 3 -k MAC 
- -t 32.320068360 -s 4 -d -1 -p vectorbasedforward -e 50 -c 2 -a 0 -i 3 -k MAC
h -t 32.320068360 -s 4 -d -1 -p vectorbasedforward -e 50 -c 2 -a 0 -i 3 -k MAC -R 100.000000
v -t 32.320068360 -e sim_annotation 32.320068360 72 node 4 sendout packet (vectorbasedforward) 3
r -t 32.380068360 -s 5 -d -1 -p vectorbasedforward -e 50 -c 2 -a 0 -i 3 -k MAC -R 100.000000
v -t 32.380068360 -e sim_annotation 32.380068360 73 node 5 receive packet(vectorbasedforward) 3
r -t 32.386735027 -s 3 -d -1 -p vectorbasedforward -e 50 -c 2 -a 0 -i 3 -k MAC -R 100.000000
v -t 32.386735027 -e sim_annotation 32.386735027 74 node 3 receive packet(vectorbasedforward) 3
r -t 32.413401693 -s 2 -d -1 -p vectorbasedforward -e 50 -c 2 -a 0 -i 3 -k MAC -R 100.000000
v -t 32.413401693 -e sim_annotation 32.413401693 75 node 2 receive packet(vectorbasedforward) 3
+ -t 32.571727820 -s 1 -d -1 -p vectorbasedforward -e 50 -c 2 -a 0 -i 3 -k MAC 
- -t 32.571727820 -s 1 -d -1 -p vectorbasedforward -e 50 -c 2 -a 0 -i 3 -k MAC
h -t 32.571727820 -s 1 -d -1 -p vectorbasedforward -e 50 -c 2 -a 0 -i 3 -k MAC -R 100.000000
v -t 32.571727820 -e sim_annotation 32.571727820 76 node 1 sendout packet (vectorbasedforward) 3
r -t 32.638394486 -s 2 -d -1 -p vectorbasedforward -e 50 -c 2 -a 0 -i 3 -k MAC -R 100.000000
v -t 32.638394486 -e sim_annotation 32.638394486 77 node 2 receive packet(vectorbasedforward) 3
r -t 32.645061153 -s 0 -d -1 -p vectorbasedforward -e 50 -c 2 -a 0 -i 3 -k MAC -R 100.000000
v -t 32.645061153 -e sim_annotation 32.645061153 78 node 0 receive packet(vectorbasedforward) 3
r -t 32.665061153 -s 3 -d -1 -p vectorbasedforward -e 50 -c 2 -a 0 -i 3 -k MAC -R 100.000000
v -t 32.665061153 -e sim_annotation 32.665061153 79 node 3 receive packet(vectorbasedforward) 3
+ -t 32.925777560 -s 2 -d -1 -p vectorbasedforward -e 50 -c 2 -a 0 -i 3 -k MAC 
- -t 32.925777560 -s 2 -d -1 -p vectorbasedforward -e 50 -c 2 -a 0 -i 3 -k MAC
h -t 32.925777560 -s 2 -d -1 -p vectorbasedforward -e 50 -c 2 -a 0 -i 3 -k MAC -R 100.000000
v -t 32.925777560 -e sim_annotation 32.925777560 80 node 2 sendout packet (vectorbasedforward) 3
r -t 32.992444227 -s 3 -d -1 -p vectorbasedforward -e 50 -c 2 -a 0 -i 3 -k MAC -R 100.000000
v -t 32.992444227 -e sim_annotation 32.992444227 81 node 3 receive packet(vectorbasedforward) 3
r -t 32.992444227 -s 1 -d -1 -p vectorbasedforward -e 50 -c 2 -a 0 -i 3 -k MAC -R 100.000000
v -t 32.992444227 -e sim_annotation 32.992444227 82 node 1 receive packet(vectorbasedforward) 3
r -t 33.019110893 -s 4 -d -1 -p vectorbasedforward -e 50 -c 2 -a 0 -i 3 -k MAC -R 100.000000
v -t 33.019110893 -e sim_annotation 33.019110893 83 node 4 receive packet(vectorbasedforward) 3
r -t 33.025777560 -s 0 -d -1 -p vectorbasedforward -e 50 -c 2 -a 0 -i 3 -k MAC -R 100.000000
v -t 33.025777560 -e sim_annotation 33.025777560 84 node 0 receive packet(vectorbasedforward) 3
+ -t 41.330025000 -s 5 -d -1 -p vectorbasedforward -e 50 -c 2 -a 0 -i 4 -k MAC 
- -t 41.330025000 -s 5 -d -1 -p vectorbasedforward -e 50 -c 2 -a 0 -i 4 -k MAC
h -t 41.330025000 -s 5 -d -1 -p vectorbasedforward -e 50 -c 2 -a 0 -i 4 -k MAC -R 100.000000
v -t 41.330025000 -e sim_annotation 41.330025000 85 node 5 sendout packet (vectorbasedforward) 4
r -t 41.390025000 -s 4 -d -1 -p vectorbasedforward -e 50 -c 2 -a 0 -i 4 -k MAC -R 100.000000
v -t 41.390025000 -e sim_annotation 41.390025000 86 node 4 receive packet(vectorbasedforward) 4
r -t 41.416691667 -s 3 -d -1 -p vectorbasedforward -e 50 -c 2 -a 0 -i 4 -k MAC -R 100.000000
v -t 41.416691667 -e sim_annotation 41.416691667 87 node 3 receive packet(vectorbasedforward) 4
+ -t 42.004464224 -s 3 -d -1 -p vectorbasedforward -e 50 -c 2 -a 0 -i 4 -k MAC 
- -t 42.004464224 -s 3 -d -1 -p vectorbasedforward -e 50 -c 2 -a 0 -i 4 -k MAC
h -t 42.004464224 -s 3 -d -1 -p vectorbasedforward -e 50 -c 2 -a 0 -i 4 -k MAC -R 100.000000
v -t 42.004464224 -e sim_annotation 42.004464224 88 node 3 sendout packet (vectorbasedforward) 4
r -t 42.071130891 -s 4 -d -1 -p vectorbasedforward -e 50 -c 2 -a 0 -i 4 -k MAC -R 100.000000
v -t 42.071130891 -e sim_annotation 42.071130891 89 node 4 receive packet(vectorbasedforward) 4
r -t 42.071130891 -s 2 -d -1 -p vectorbasedforward -e 50 -c 2 -a 0 -i 4 -k MAC -R 100.000000
v -t 42.071130891 -e sim_annotation 42.071130891 90 node 2 receive packet(vectorbasedforward) 4
r -t 42.091130891 -s 5 -d -1 -p vectorbasedforward -e 50 -c 2 -a 0 -i 4 -k MAC -R 100.000000
v -t 42.091130891 -e sim_annotation 42.091130891 91 node 5 receive packet(vectorbasedforward) 4
r -t 42.097797558 -s 1 -d -1 -p vectorbasedforward -e 50 -c 2 -a 0 -i 4 -k MAC -R 100.000000
v -t 42.097797558 -e sim_annotation 42.097797558 92 node 1 receive packet(vectorbasedforward) 4
+ -t 42.320068360 -s 4 -d -1 -p vectorbasedforward -e 50 -c 2 -a 0 -i 4 -k MAC 
- -t 42.320068360 -s 4 -d -1 -p vectorbasedforward -e 50 -c 2 -a 0 -i 4 -k MAC
h -t 42.320068360 -s 4 -d -1 -p vectorbasedforward -e 50 -c 2 -a 0 -i 4 -k MAC -R 100.000000
v -t 42.320068360 -e sim_annotation 42.320068360 93 node 4 sendout packet (vectorbasedforward) 4
r -t 42.380068360 -s 5 -d -1 -p vectorbasedforward -e 50 -c 2 -a 0 -i 4 -k MAC -R 100.000000
v -t 42.380068360 -e sim_annotation 42.380068360 94 node 5 receive packet(vectorbasedforward) 4
r -t 42.386735027 -s 3 -d -1 -p vectorbasedforward -e 50 -c 2 -a 0 -i 4 -k MAC -R 100.000000
v -t 42.386735027 -e sim_annotation 42.386735027 95 node 3 receive packet(vectorbasedforward) 4
r -t 42.413401693 -s 2 -d -1 -p vectorbasedforward -e 50 -c 2 -a 0 -i 4 -k MAC -R 100.000000
v -t 42.413401693 -e sim_annotation 42.413401693 96 node 2 receive packet(vectorbasedforward) 4
+ -t 42.571727820 -s 1 -d -1 -p vectorbasedforward -e 50 -c 2 -a 0 -i 4 -k MAC 
- -t 42.571727820 -s 1 -d -1 -p vectorbasedforward -e 50 -c 2 -a 0 -i 4 -k MAC
h -t 42.571727820 -s 1 -d -1 -p vectorbasedforward -e 50 -c 2 -a 0 -i 4 -k MAC -R 100.000000
v -t 42.571727820 -e sim_annotation 42.571727820 97 node 1 sendout packet (vectorbasedforward) 4
r -t 42.638394486 -s 2 -d -1 -p vectorbasedforward -e 50 -c 2 -a 0 -i 4 -k MAC -R 100.000000
v -t 42.638394486 -e sim_annotation 42.638394486 98 node 2 receive packet(vectorbasedforward) 4
r -t 42.645061153 -s 0 -d -1 -p vectorbasedforward -e 50 -c 2 -a 0 -i 4 -k MAC -R 100.000000
v -t 42.645061153 -e sim_annotation 42.645061153 99 node 0 receive packet(vectorbasedforward) 4
r -t 42.665061153 -s 3 -d -1 -p vectorbasedforward -e 50 -c 2 -a 0 -i 4 -k MAC -R 100.000000
v -t 42.665061153 -e sim_annotation 42.665061153 100 node 3 receive packet(vectorbasedforward) 4
+ -t 42.925777560 -s 2 -d -1 -p vectorbasedforward -e 50 -c 2 -a 0 -i 4 -k MAC 
- -t 42.925777560 -s 2 -d -1 -p vectorbasedforward -e 50 -c 2 -a 0 -i 4 -k MAC
h -t 42.925777560 -s 2 -d -1 -p vectorbasedforward -e 50 -c 2 -a 0 -i 4 -k MAC -R 100.000000
v -t 42.925777560 -e sim_annotation 42.925777560 101 node 2 sendout packet (vectorbasedforward) 4
r -t 42.992444227 -s 3 -d -1 -p vectorbasedforward -e 50 -c 2 -a 0 -i 4 -k MAC -R 100.000000
v -t 42.992444227 -e sim_annotation 42.992444227 102 node 3 receive packet(vectorbasedforward) 4
r -t 42.992444227 -s 1 -d -1 -p vectorbasedforward -e 50 -c 2 -a 0 -i 4 -k MAC -R 100.000000
v -t 42.992444227 -e sim_annotation 42.992444227 103 node 1 receive packet(vectorbasedforward) 4
r -t 43.019110893 -s 4 -d -1 -p vectorbasedforward -e 50 -c 2 -a 0 -i 4 -k MAC -R 100.000000
v -t 43.019110893 -e sim_annotation 43.019110893 104 node 4 receive packet(vectorbasedforward) 4
r -t 43.025777560 -s 0 -d -1 -p vectorbasedforward -e 50 -c 2 -a 0 -i 4 -k MAC -R 100.000000
v -t 43.025777560 -e sim_annotation 43.025777560 105 node 0 receive packet(vectorbasedforward) 4
+ -t 51.330025000 -s 5 -d -1 -p vectorbasedforward -e 50 -c 2 -a 0 -i 5 -k MAC 
- -t 51.330025000 -s 5 -d -1 -p vectorbasedforward -e 50 -c 2 -a 0 -i 5 -k MAC
h -t 51.330025000 -s 5 -d -1 -p vectorbasedforward -e 50 -c 2 -a 0 -i 5 -k MAC -R 100.000000
v -t 51.330025000 -e sim_annotation 51.330025000 106 node 5 sendout packet (vectorbasedforward) 5
r -t 51.390025000 -s 4 -d -1 -p vectorbasedforward -e 50 -c 2 -a 0 -i 5 -k MAC -R 100.000000
v -t 51.390025000 -e sim_annotation 51.390025000 107 node 4 receive packet(vectorbasedforward) 5
r -t 51.416691667 -s 3 -d -1 -p vectorbasedforward -e 50 -c 2 -a 0 -i 5 -k MAC -R 100.000000
v -t 51.416691667 -e sim_annotation 51.416691667 108 node 3 receive packet(vectorbasedforward) 5
+ -t 52.004464224 -s 3 -d -1 -p vectorbasedforward -e 50 -c 2 -a 0 -i 5 -k MAC 
- -t 52.004464224 -s 3 -d -1 -p vectorbasedforward -e 50 -c 2 -a 0 -i 5 -k MAC
h -t 52.004464224 -s 3 -d -1 -p vectorbasedforward -e 50 -c 2 -a 0 -i 5 -k MAC -R 100.000000
v -t 52.004464224 -e sim_annotation 52.004464224 109 node 3 sendout packet (vectorbasedforward) 5
r -t 52.071130891 -s 4 -d -1 -p vectorbasedforward -e 50 -c 2 -a 0 -i 5 -k MAC -R 100.000000
v -t 52.071130891 -e sim_annotation 52.071130891 110 node 4 receive packet(vectorbasedforward) 5
r -t 52.071130891 -s 2 -d -1 -p vectorbasedforward -e 50 -c 2 -a 0 -i 5 -k MAC -R 100.000000
v -t 52.071130891 -e sim_annotation 52.071130891 111 node 2 receive packet(vectorbasedforward) 5
r -t 52.091130891 -s 5 -d -1 -p vectorbasedforward -e 50 -c 2 -a 0 -i 5 -k MAC -R 100.000000
v -t 52.091130891 -e sim_annotation 52.091130891 112 node 5 receive packet(vectorbasedforward) 5
r -t 52.097797558 -s 1 -d -1 -p vectorbasedforward -e 50 -c 2 -a 0 -i 5 -k MAC -R 100.000000
v -t 52.097797558 -e sim_annotation 52.097797558 113 node 1 receive packet(vectorbasedforward) 5
+ -t 52.320068360 -s 4 -d -1 -p vectorbasedforward -e 50 -c 2 -a 0 -i 5 -k MAC 
- -t 52.320068360 -s 4 -d -1 -p vectorbasedforward -e 50 -c 2 -a 0 -i 5 -k MAC
h -t 52.320068360 -s 4 -d -1 -p vectorbasedforward -e 50 -c 2 -a 0 -i 5 -k MAC -R 100.000000
v -t 52.320068360 -e sim_annotation 52.320068360 114 node 4 sendout packet (vectorbasedforward) 5
r -t 52.380068360 -s 5 -d -1 -p vectorbasedforward -e 50 -c 2 -a 0 -i 5 -k MAC -R 100.000000
v -t 52.380068360 -e sim_annotation 52.380068360 115 node 5 receive packet(vectorbasedforward) 5
r -t 52.386735027 -s 3 -d -1 -p vectorbasedforward -e 50 -c 2 -a 0 -i 5 -k MAC -R 100.000000
v -t 52.386735027 -e sim_annotation 52.386735027 116 node 3 receive packet(vectorbasedforward) 5
r -t 52.413401693 -s 2 -d -1 -p vectorbasedforward -e 50 -c 2 -a 0 -i 5 -k MAC -R 100.000000
v -t 52.413401693 -e sim_annotation 52.413401693 117 node 2 receive packet(vectorbasedforward) 5
+ -t 52.571727820 -s 1 -d -1 -p vectorbasedforward -e 50 -c 2 -a 0 -i 5 -k MAC 
- -t 52.571727820 -s 1 -d -1 -p vectorbasedforward -e 50 -c 2 -a 0 -i 5 -k MAC
h -t 52.571727820 -s 1 -d -1 -p vectorbasedforward -e 50 -c 2 -a 0 -i 5 -k MAC -R 100.000000
v -t 52.571727820 -e sim_annotation 52.571727820 118 node 1 sendout packet (vectorbasedforward) 5
r -t 52.638394486 -s 2 -d -1 -p vectorbasedforward -e 50 -c 2 -a 0 -i 5 -k MAC -R 100.000000
v -t 52.638394486 -e sim_annotation 52.638394486 119 node 2 receive packet(vectorbasedforward) 5
r -t 52.645061153 -s 0 -d -1 -p vectorbasedforward -e 50 -c 2 -a 0 -i 5 -k MAC -R 100.000000
v -t 52.645061153 -e sim_annotation 52.645061153 120 node 0 receive packet(vectorbasedforward) 5
r -t 52.665061153 -s 3 -d -1 -p vectorbasedforward -e 50 -c 2 -a 0 -i 5 -k MAC -R 100.000000
v -t 52.665061153 -e sim_annotation 52.665061153 121 node 3 receive packet(vectorbasedforward) 5
+ -t 52.925777560 -s 2 -d -1 -p vectorbasedforward -e 50 -c 2 -a 0 -i 5 -k MAC 
- -t 52.925777560 -s 2 -d -1 -p vectorbasedforward -e 50 -c 2 -a 0 -i 5 -k MAC
h -t 52.925777560 -s 2 -d -1 -p vectorbasedforward -e 50 -c 2 -a 0 -i 5 -k MAC -R 100.000000
v -t 52.925777560 -e sim_annotation 52.925777560 122 node 2 sendout packet (vectorbasedforward) 5
r -t 52.992444227 -s 3 -d -1 -p vectorbasedforward -e 50 -c 2 -a 0 -i 5 -k MAC -R 100.000000
v -t 52.992444227 -e sim_annotation 52.992444227 123 node 3 receive packet(vectorbasedforward) 5
r -t 52.992444227 -s 1 -d -1 -p vectorbasedforward -e 50 -c 2 -a 0 -i 5 -k MAC -R 100.000000
v -t 52.992444227 -e sim_annotation 52.992444227 124 node 1 receive packet(vectorbasedforward) 5
r -t 53.019110893 -s 4 -d -1 -p vectorbasedforward -e 50 -c 2 -a 0 -i 5 -k MAC -R 100.000000
v -t 53.019110893 -e sim_annotation 53.019110893 125 node 4 receive packet(vectorbasedforward) 5
r -t 53.025777560 -s 0 -d -1 -p vectorbasedforward -e 50 -c 2 -a 0 -i 5 -k MAC -R 100.000000
v -t 53.025777560 -e sim_annotation 53.025777560 126 node 0 receive packet(vectorbasedforward) 5
+ -t 61.330025000 -s 5 -d -1 -p vectorbasedforward -e 50 -c 2 -a 0 -i 6 -k MAC 
- -t 61.330025000 -s 5 -d -1 -p vectorbasedforward -e 50 -c 2 -a 0 -i 6 -k MAC
h -t 61.330025000 -s 5 -d -1 -p vectorbasedforward -e 50 -c 2 -a 0 -i 6 -k MAC -R 100.000000
v -t 61.330025000 -e sim_annotation 61.330025000 127 node 5 sendout packet (vectorbasedforward) 6
r -t 61.390025000 -s 4 -d -1 -p vectorbasedforward -e 50 -c 2 -a 0 -i 6 -k MAC -R 100.000000
v -t 61.390025000 -e sim_annotation 61.390025000 128 node 4 receive packet(vectorbasedforward) 6
r -t 61.416691667 -s 3 -d -1 -p vectorbasedforward -e 50 -c 2 -a 0 -i 6 -k MAC -R 100.000000
v -t 61.416691667 -e sim_annotation 61.416691667 129 node 3 receive packet(vectorbasedforward) 6
+ -t 62.004464224 -s 3 -d -1 -p vectorbasedforward -e 50 -c 2 -a 0 -i 6 -k MAC 
- -t 62.004464224 -s 3 -d -1 -p vectorbasedforward -e 50 -c 2 -a 0 -i 6 -k MAC
h -t 62.004464224 -s 3 -d -1 -p vectorbasedforward -e 50 -c 2 -a 0 -i 6 -k MAC -R 100.000000