N -t 1.000000 -n 0 -e 9999.992000
N -t 1.000000 -n 1 -e 9999.992000
N -t 1.000000 -n 2 -e 9999.992000
N -t 1.000000 -n 3 -e 9999.992000
N -t 1.000000 -n 4 -e 9999.992000
N -t 1.000000 -n 5 -e 9999.992000
s 1.330025000 _5_ MAC  --- 0 vectorbasedforward 50 [0 5000000 ffff0008 0] [energy 9999.992000 ei 0.008 es 0.000 et 0.000 er 0.000] ------- [5:0 5:255 0 0] 
r 1.390025000 _4_ MAC  --- 0 vectorbasedforward 50 [0 5000000 ffff0008 0] [energy 9999.959200 ei 0.011 es 0.000 et 0.000 er 0.030] ------- [5:0 5:255 0 0] 
r 1.416691667 _3_ MAC  --- 0 vectorbasedforward 50 [0 5000000 ffff0008 0] [energy 9999.958986 ei 0.011 es 0.000 et 0.000 er 0.030] ------- [5:0 5:255 0 0] 
N -t 2.000000 -n 0 -e 9999.984000
N -t 2.000000 -n 1 -e 9999.984000
N -t 2.000000 -n 2 -e 9999.984000
N -t 2.000000 -n 3 -e 9999.954320
N -t 2.000000 -n 4 -e 9999.954320
N -t 2.000000 -n 5 -e 9999.904320
s 2.004464224 _3_ MAC  --- 0 vectorbasedforward 50 [0 3000000 ffff0008 0] [energy 9999.954320 ei 0.016 es 0.000 et 0.000 er 0.030] ------- [5:0 5:255 0 0] 
r 2.071130891 _4_ MAC  --- 0 vectorbasedforward 50 [0 3000000 ffff0008 0] [energy 9999.924071 ei 0.016 es 0.000 et 0.000 er 0.060] ------- [5:0 5:255 0 0] 
r 2.071130891 _2_ MAC  --- 0 vectorbasedforward 50 [0 3000000 ffff0008 0] [energy 9999.953751 ei 0.016 es 0.000 et 0.000 er 0.030] ------- [5:0 5:255 0 0] 
r 2.091130891 _5_ MAC  --- 0 vectorbasedforward 50 [0 3000000 ffff0008 0] [energy 9999.873911 ei 0.016 es 0.000 et 0.080 er 0.030] ------- [5:0 5:255 0 0] 
r 2.097797558 _1_ MAC  --- 0 vectorbasedforward 50 [0 3000000 ffff0008 0] [energy 9999.953538 ei 0.016 es 0.000 et 0.000 er 0.030] ------- [5:0 5:255 0 0] 
s 2.320068360 _4_ MAC  --- 0 vectorbasedforward 50 [0 4000000 ffff0008 0] [energy 9999.924071 ei 0.016 es 0.000 et 0.000 er 0.060] ------- [5:0 5:255 0 0] 
r 2.380068360 _5_ MAC  --- 0 vectorbasedforward 50 [0 4000000 ffff0008 0] [energy 9999.841919 ei 0.018 es 0.000 et 0.080 er 0.060] ------- [5:0 5:255 0 0] 
r 2.386735027 _3_ MAC  --- 0 vectorbasedforward 50 [0 4000000 ffff0008 0] [energy 9999.841866 ei 0.018 es 0.000 et 0.080 er 0.060] ------- [5:0 5:255 0 0] 
r 2.413401693 _2_ MAC  --- 0 vectorbasedforward 50 [0 4000000 ffff0008 0] [energy 9999.921333 ei 0.019 es 0.000 et 0.000 er 0.060] ------- [5:0 5:255 0 0] 
s 2.571727820 _1_ MAC  --- 0 vectorbasedforward 50 [0 1000000 ffff0008 0] [energy 9999.953538 ei 0.016 es 0.000 et 0.000 er 0.030] ------- [5:0 5:255 0 0] 
r 2.638394486 _2_ MAC  --- 0 vectorbasedforward 50 [0 1000000 ffff0008 0] [energy 9999.889853 ei 0.020 es 0.000 et 0.000 er 0.090] ------- [5:0 5:255 0 0] 
r 2.645061153 _0_ MAC  --- 0 vectorbasedforward 50 [0 1000000 ffff0008 0] [energy 9999.949160 ei 0.021 es 0.000 et 0.000 er 0.030] ------- [5:0 5:255 0 0] 
r 2.665061153 _3_ MAC  --- 0 vectorbasedforward 50 [0 1000000 ffff0008 0] [energy 9999.809960 ei 0.020 es 0.000 et 0.080 er 0.090] ------- [5:0 5:255 0 0] 
s 2.925777560 _2_ MAC  --- 0 vectorbasedforward 50 [0 2000000 ffff0008 0] [energy 9999.889853 ei 0.020 es 0.000 et 0.000 er 0.090] ------- [5:0 5:255 0 0] 
r 2.992444227 _3_ MAC  --- 0 vectorbasedforward 50 [0 2000000 ffff0008 0] [energy 9999.777660 ei 0.022 es 0.000 et 0.080 er 0.120] ------- [5:0 5:255 0 0] 
r 2.992444227 _1_ MAC  --- 0 vectorbasedforward 50 [0 2000000 ffff0008 0] [energy 9999.837020 ei 0.023 es 0.000 et 0.080 er 0.060] ------- [5:0 5:255 0 0] 
N -t 3.000000 -n 0 -e 9999.916434
N -t 3.000000 -n 1 -e 9999.836960
N -t 3.000000 -n 2 -e 9999.807280
N -t 3.000000 -n 3 -e 9999.777600
N -t 3.000000 -n 4 -e 9999.807127
N -t 3.000000 -n 5 -e 9999.836960
r 3.019110893 _4_ MAC  --- 0 vectorbasedforward 50 [0 2000000 ffff0008 0] [energy 9999.807127 ei 0.023 es 0.000 et 0.080 er 0.090] ------- [5:0 5:255 0 0] 
r 3.025777560 _0_ MAC  --- 0 vectorbasedforward 50 [0 2000000 ffff0008 0] [energy 9999.916434 ei 0.024 es 0.000 et 0.000 er 0.060] ------- [5:0 5:255 0 0] 
N -t 4.000000 -n 0 -e 9999.908640
N -t 4.000000 -n 1 -e 9999.828960
N -t 4.000000 -n 2 -e 9999.799280
N -t 4.000000 -n 3 -e 9999.769600
N -t 4.000000 -n 4 -e 9999.799280
N -t 4.000000 -n 5 -e 9999.828960
N -t 5.000000 -n 0 -e 9999.900640
N -t 5.000000 -n 1 -e 9999.820960
N -t 5.000000 -n 2 -e 9999.791280
N -t 5.000000 -n 3 -e 9999.761600
N -t 5.000000 -n 4 -e 9999.791280
N -t 5.000000 -n 5 -e 9999.820960
N -t 6.000000 -n 0 -e 9999.892640
N -t 6.000000 -n 1 -e 9999.812960
N -t 6.000000 -n 2 -e 9999.783280
N -t 6.000000 -n 3 -e 9999.753600
N -t 6.000000 -n 4 -e 9999.783280
N -t 6.000000 -n 5 -e 9999.812960
N -t 7.000000 -n 0 -e 9999.884640
N -t 7.000000 -n 1 -e 9999.804960
N -t 7.000000 -n 2 -e 9999.775280
N -t 7.000000 -n 3 -e 9999.745600
N -t 7.000000 -n 4 -e 9999.775280
N -t 7.000000 -n 5 -e 9999.804960
N -t 8.000000 -n 0 -e 9999.876640
N -t 8.000000 -n 1 -e 9999.796960
N -t 8.000000 -n 2 -e 9999.767280
N -t 8.000000 -n 3 -e 9999.737600
N -t 8.000000 -n 4 -e 9999.767280
N -t 8.000000 -n 5 -e 9999.796960
N -t 9.000000 -n 0 -e 9999.868640
N -t 9.000000 -n 1 -e 9999.788960
N -t 9.000000 -n 2 -e 9999.759280
N -t 9.000000 -n 3 -e 9999.729600
N -t 9.000000 -n 4 -e 9999.759280
N -t 9.000000 -n 5 -e 9999.788960
N -t 10.000000 -n 0 -e 9999.860640
N -t 10.000000 -n 1 -e 9999.780960
N -t 10.000000 -n 2 -e 9999.751280
N -t 10.000000 -n 3 -e 9999.721600
N -t 10.000000 -n 4 -e 9999.751280
N -t 10.000000 -n 5 -e 9999.780960
N -t 11.000000 -n 0 -e 9999.852640
N -t 11.000000 -n 1 -e 9999.772960
N -t 11.000000 -n 2 -e 9999.743280
N -t 11.000000 -n 3 -e 9999.713600
N -t 11.000000 -n 4 -e 9999.743280
N -t 11.000000 -n 5 -e 9999.772960
s 11.330025000 _5_ MAC  --- 1 vectorbasedforward 50 [0 5000000 ffff0008 0] [energy 9999.772960 ei 0.087 es 0.000 et 0.080 er 0.060] ------- [5:0 5:255 0 0] 
r 11.390025000 _4_ MAC  --- 1 vectorbasedforward 50 [0 5000000 ffff0008 0] [energy 9999.710480 ei 0.090 es 0.000 et 0.080 er 0.120] ------- [5:0 5:255 0 0] 
r 11.416691667 _3_ MAC  --- 1 vectorbasedforward 50 [0 5000000 ffff0008 0] [energy 9999.680586 ei 0.089 es 0.000 et 0.080 er 0.150] ------- [5:0 5:255 0 0] 
N -t 12.000000 -n 0 -e 9999.844640
N -t 12.000000 -n 1 -e 9999.764960
N -t 12.000000 -n 2 -e 9999.735280
N -t 12.000000 -n 3 -e 9999.675920
N -t 12.000000 -n 4 -e 9999.705600
N -t 12.000000 -n 5 -e 9999.685280
s 12.004464224 _3_ MAC  --- 1 vectorbasedforward 50 [0 3000000 ffff0008 0] [energy 9999.675920 ei 0.094 es 0.000 et 0.080 er 0.150] ------- [5:0 5:255 0 0] 
r 12.071130891 _4_ MAC  --- 1 vectorbasedforward 50 [0 3000000 ffff0008 0] [energy 9999.675351 ei 0.095 es 0.000 et 0.080 er 0.150] ------- [5:0 5:255 0 0] 
r 12.071130891 _2_ MAC  --- 1 vectorbasedforward 50 [0 3000000 ffff0008 0] [energy 9999.705031 ei 0.095 es 0.000 et 0.080 er 0.120] ------- [5:0 5:255 0 0] 
r 12.091130891 _5_ MAC  --- 1 vectorbasedforward 50 [0 3000000 ffff0008 0] [energy 9999.654871 ei 0.095 es 0.000 et 0.160 er 0.090] ------- [5:0 5:255 0 0] 
r 12.097797558 _1_ MAC  --- 1 vectorbasedforward 50 [0 3000000 ffff0008 0] [energy 9999.734498 ei 0.096 es 0.000 et 0.080 er 0.090] ------- [5:0 5:255 0 0] 
s 12.320068360 _4_ MAC  --- 1 vectorbasedforward 50 [0 4000000 ffff0008 0] [energy 9999.675351 ei 0.095 es 0.000 et 0.080 er 0.150] ------- [5:0 5:255 0 0] 
r 12.380068360 _5_ MAC  --- 1 vectorbasedforward 50 [0 4000000 ffff0008 0] [energy 9999.622879 ei 0.097 es 0.000 et 0.160 er 0.120] ------- [5:0 5:255 0 0] 
r 12.386735027 _3_ MAC  --- 1 vectorbasedforward 50 [0 4000000 ffff0008 0] [energy 9999.563466 ei 0.097 es 0.000 et 0.160 er 0.180] ------- [5:0 5:255 0 0] 
r 12.413401693 _2_ MAC  --- 1 vectorbasedforward 50 [0 4000000 ffff0008 0] [energy 9999.672613 ei 0.097 es 0.000 et 0.080 er 0.150] ------- [5:0 5:255 0 0] 
s 12.571727820 _1_ MAC  --- 1 vectorbasedforward 50 [0 1000000 ffff0008 0] [energy 9999.734498 ei 0.096 es 0.000 et 0.080 er 0.090] ------- [5:0 5:255 0 0] 
r 12.638394486 _2_ MAC  --- 1 vectorbasedforward 50 [0 1000000 ffff0008 0] [energy 9999.641133 ei 0.099 es 0.000 et 0.080 er 0.180] ------- [5:0 5:255 0 0] 
r 12.645061153 _0_ MAC  --- 1 vectorbasedforward 50 [0 1000000 ffff0008 0] [energy 9999.809800 ei 0.100 es 0.000 et 0.000 er 0.090] ------- [5:0 5:255 0 0] 
r 12.665061153 _3_ MAC  --- 1 vectorbasedforward 50 [0 1000000 ffff0008 0] [energy 9999.531560 ei 0.098 es 0.000 et 0.160 er 0.210] ------- [5:0 5:255 0 0] 
s 12.925777560 _2_ MAC  --- 1 vectorbasedforward 50 [0 2000000 ffff0008 0] [energy 9999.641133 ei 0.099 es 0.000 et 0.080 er 0.180] ------- [5:0 5:255 0 0] 
r 12.992444227 _3_ MAC  --- 1 vectorbasedforward 50 [0 2000000 ffff0008 0] [energy 9999.499260 ei 0.101 es 0.000 et 0.160 er 0.240] ------- [5:0 5:255 0 0] 
r 12.992444227 _1_ MAC  --- 1 vectorbasedforward 50 [0 2000000 ffff0008 0] [energy 9999.617980 ei 0.102 es 0.000 et 0.160 er 0.120] ------- [5:0 5:255 0 0] 
N -t 13.000000 -n 0 -e 9999.777074
N -t 13.000000 -n 1 -e 9999.617920
N -t 13.000000 -n 2 -e 9999.558560
N -t 13.000000 -n 3 -e 9999.499200
N -t 13.000000 -n 4 -e 9999.558407
N -t 13.000000 -n 5 -e 9999.617920
r 13.019110893 _4_ MAC  --- 1 vectorbasedforward 50 [0 2000000 ffff0008 0] [energy 9999.558407 ei 0.102 es 0.000 et 0.160 er 0.180] ------- [5:0 5:255 0 0] 
r 13.025777560 _0_ MAC  --- 1 vectorbasedforward 50 [0 2000000 ffff0008 0] [energy 9999.777074 ei 0.103 es 0.000 et 0.000 er 0.120] ------- [5:0 5:255 0 0] 
N -t 14.000000 -n 0 -e 9999.769280
N -t 14.000000 -n 1 -e 9999.609920
N -t 14.000000 -n 2 -e 9999.550560
N -t 14.000000 -n 3 -e 9999.491200
N -t 14.000000 -n 4 -e 9999.550560
N -t 14.000000 -n 5 -e 9999.609920
N -t 15.000000 -n 0 -e 9999.761280
N -t 15.000000 -n 1 -e 9999.601920
N -t 15.000000 -n 2 -e 9999.542560
N -t 15.000000 -n 3 -e 9999.483200
N -t 15.000000 -n 4 -e 9999.542560
N -t 15.000000 -n 5 -e 9999.601920
N -t 16.000000 -n 0 -e 9999.753280
N -t 16.000000 -n 1 -e 9999.593920
N -t 16.000000 -n 2 -e 9999.534560
N -t 16.000000 -n 3 -e 9999.475200
N -t 16.000000 -n 4 -e 9999.534560
N -t 16.000000 -n 5 -e 9999.593920
N -t 17.000000 -n 0 -e 9999.745280
N -t 17.000000 -n 1 -e 9999.585920
N -t 17.000000 -n 2 -e 9999.526560
N -t 17.000000 -n 3 -e 9999.467200
N -t 17.000000 -n 4 -e 9999.526560
N -t 17.000000 -n 5 -e 9999.585920
N -t 18.000000 -n 0 -e 9999.737280
N -t 18.000000 -n 1 -e 9999.577920
N -t 18.000000 -n 2 -e 9999.518560
N -t 18.000000 -n 3 -e 9999.459200
N -t 18.000000 -n 4 -e 9999.518560
N -t 18.000000 -n 5 -e 9999.577920
N -t 19.000000 -n 0 -e 9999.729280
N -t 19.000000 -n 1 -e 9999.569920
N -t 19.000000 -n 2 -e 9999.510560
N -t 19.000000 -n 3 -e 9999.451200
N -t 19.000000 -n 4 -e 9999.510560
N -t 19.000000 -n 5 -e 9999.569920
N -t 20.000000 -n 0 -e 9999.721280
N -t 20.000000 -n 1 -e 9999.561920
N -t 20.000000 -n 2 -e 9999.502560
N -t 20.000000 -n 3 -e 9999.443200
N -t 20.000000 -n 4 -e 9999.502560
N -t 20.000000 -n 5 -e 9999.561920
N -t 21.000000 -n 0 -e 9999.713280
N -t 21.000000 -n 1 -e 9999.553920
N -t 21.000000 -n 2 -e 9999.494560
N -t 21.000000 -n 3 -e 9999.435200
N -t 21.000000 -n 4 -e 9999.494560
N -t 21.000000 -n 5 -e 9999.553920
s 21.330025000 _5_ MAC  --- 2 vectorbasedforward 50 [0 5000000 ffff0008 0] [energy 9999.553920 ei 0.166 es 0.000 et 0.160 er 0.120] ------- [5:0 5:255 0 0] 
r 21.390025000 _4_ MAC  --- 2 vectorbasedforward 50 [0 5000000 ffff0008 0] [energy 9999.461760 ei 0.168 es 0.000 et 0.160 er 0.210] ------- [5:0 5:255 0 0] 
r 21.416691667 _3_ MAC  --- 2 vectorbasedforward 50 [0 5000000 ffff0008 0] [energy 9999.402186 ei 0.168 es 0.000 et 0.160 er 0.270] ------- [5:0 5:255 0 0] 
N -t 22.000000 -n 0 -e 9999.705280
N -t 22.000000 -n 1 -e 9999.545920
N -t 22.000000 -n 2 -e 9999.486560
N -t 22.000000 -n 3 -e 9999.397520
N -t 22.000000 -n 4 -e 9999.456880
N -t 22.000000 -n 5 -e 9999.466240
s 22.004464224 _3_ MAC  --- 2 vectorbasedforward 50 [0 3000000 ffff0008 0] [energy 9999.397520 ei 0.172 es 0.000 et 0.160 er 0.270] ------- [5:0 5:255 0 0] 
r 22.071130891 _4_ MAC  --- 2 vectorbasedforward 50 [0 3000000 ffff0008 0] [energy 9999.426631 ei 0.173 es 0.000 et 0.160 er 0.240] ------- [5:0 5:255 0 0] 
r 22.071130891 _2_ MAC  --- 2 vectorbasedforward 50 [0 3000000 ffff0008 0] [energy 9999.456311 ei 0.174 es 0.000 et 0.160 er 0.210] ------- [5:0 5:255 0 0] 
r 22.091130891 _5_ MAC  --- 2 vectorbasedforward 50 [0 3000000 ffff0008 0] [energy 9999.435831 ei 0.174 es 0.000 et 0.240 er 0.150] ------- [5:0 5:255 0 0] 
r 22.097797558 _1_ MAC  --- 2 vectorbasedforward 50 [0 3000000 ffff0008 0] [energy 9999.515458 ei 0.175 es 0.000 et 0.160 er 0.150] ------- [5:0 5:255 0 0] 
s 22.320068360 _4_ MAC  --- 2 vectorbasedforward 50 [0 4000000 ffff0008 0] [energy 9999.426631 ei 0.173 es 0.000 et 0.160 er 0.240] ------- [5:0 5:255 0 0] 
r 22.380068360 _5_ MAC  --- 2 vectorbasedforward 50 [0 4000000 ffff0008 0] [energy 9999.403839 ei 0.176 es 0.000 et 0.240 er 0.180] ------- [5:0 5:255 0 0] 
r 22.386735027 _3_ MAC  --- 2 vectorbasedforward 50 [0 4000000 ffff0008 0] [energy 9999.285066 ei 0.175 es 0.000 et 0.240 er 0.300] ------- [5:0 5:255 0 0] 
r 22.413401693 _2_ MAC  --- 2 vectorbasedforward 50 [0 4000000 ffff0008 0] [energy 9999.423893 ei 0.176 es 0.000 et 0.160 er 0.240] ------- [5:0 5:255 0 0] 
s 22.571727820 _1_ MAC  --- 2 vectorbasedforward 50 [0 1000000 ffff0008 0] [energy 9999.515458 ei 0.175 es 0.000 et 0.160 er 0.150] ------- [5:0 5:255 0 0] 
r 22.638394486 _2_ MAC  --- 2 vectorbasedforward 50 [0 1000000 ffff0008 0] [energy 9999.392413 ei 0.178 es 0.000 et 0.160 er 0.270] ------- [5:0 5:255 0 0] 
r 22.645061153 _0_ MAC  --- 2 vectorbasedforward 50 [0 1000000 ffff0008 0] [energy 9999.670440 ei 0.180 es 0.000 et 0.000 er 0.150] ------- [5:0 5:255 0 0] 
r 22.665061153 _3_ MAC  --- 2 vectorbasedforward 50 [0 1000000 ffff0008 0] [energy 9999.253160 ei 0.177 es 0.000 et 0.240 er 0.330] ------- [5:0 5:255 0 0] 
s 22.925777560 _2_ MAC  --- 2 vectorbasedforward 50 [0 2000000 ffff0008 0] [energy 9999.392413 ei 0.178 es 0.000 et 0.160 er 0.270] ------- [5:0 5:255 0 0] 
r 22.992444227 _3_ MAC  --- 2 vectorbasedforward 50 [0 2000000 ffff0008 0] [energy 9999.220860 ei 0.179 es 0.000 et 0.240 er 0.360] ------- [5:0 5:255 0 0] 
r 22.992444227 _1_ MAC  --- 2 vectorbasedforward 50 [0 2000000 ffff0008 0] [energy 9999.398940 ei 0.181 es 0.000 et 0.240 er 0.180] ------- [5:0 5:255 0 0] 
N -t 23.000000 -n 0 -e 9999.637714
N -t 23.000000 -n 1 -e 9999.398880
N -t 23.000000 -n 2 -e 9999.309840
N -t 23.000000 -n 3 -e 9999.220800
N -t 23.000000 -n 4 -e 9999.309687
N -t 23.000000 -n 5 -e 9999.398880
r 23.019110893 _4_ MAC  --- 2 vectorbasedforward 50 [0 2000000 ffff0008 0] [energy 9999.309687 ei 0.180 es 0.000 et 0.240 er 0.270] ------- [5:0 5:255 0 0] 
r 23.025777560 _0_ MAC  --- 2 vectorbasedforward 50 [0 2000000 ffff0008 0] [energy 9999.637714 ei 0.182 es 0.000 et 0.000 er 0.180] ------- [5:0 5:255 0 0] 
N -t 24.000000 -n 0 -e 9999.629920
N -t 24.000000 -n 1 -e 9999.390880
N -t 24.000000 -n 2 -e 9999.301840
N -t 24.000000 -n 3 -e 9999.212800
N -t 24.000000 -n 4 -e 9999.301840
N -t 24.000000 -n 5 -e 9999.390880
N -t 25.000000 -n 0 -e 9999.621920
N -t 25.000000 -n 1 -e 9999.382880
N -t 25.000000 -n 2 -e 9999.293840
N -t 25.000000 -n 3 -e 9999.204800
N -t 25.000000 -n 4 -e 9999.293840
N -t 25.000000 -n 5 -e 9999.382880
N -t 26.000000 -n 0 -e 9999.613920
N -t 26.000000 -n 1 -e 9999.374880
N -t 26.000000 -n 2 -e 9999.285840
N -t 26.000000 -n 3 -e 9999.196800
N -t 26.000000 -n 4 -e 9999.285840
N -t 26.000000 -n 5 -e 9999.374880
N -t 27.000000 -n 0 -e 9999.605920
N -t 27.000000 -n 1 -e 9999.366880
N -t 27.000000 -n 2 -e 9999.277840
N -t 27.000000 -n 3 -e 9999.188800
N -t 27.000000 -n 4 -e 9999.277840
N -t 27.000000 -n 5 -e 9999.366880
N -t 28.000000 -n 0 -e 9999.597920
N -t 28.000000 -n 1 -e 9999.358880
N -t 28.000000 -n 2 -e 9999.269840
N -t 28.000000 -n 3 -e 9999.180800
N -t 28.000000 -n 4 -e 9999.269840
N -t 28.000000 -n 5 -e 9999.358880
N -t 29.000000 -n 0 -e 9999.589920
N -t 29.000000 -n 1 -e 9999.350880
N -t 29.000000 -n 2 -e 9999.261840
N -t 29.000000 -n 3 -e 9999.172800
N -t 29.000000 -n 4 -e 9999.261840
N -t 29.000000 -n 5 -e 9999.350880
N -t 30.000000 -n 0 -e 9999.581920
N -t 30.000000 -n 1 -e 9999.342880
N -t 30.000000 -n 2 -e 9999.253840
N -t 30.000000 -n 3 -e 9999.164800
N -t 30.000000 -n 4 -e 9999.253840
N -t 30.000000 -n 5 -e 9999.342880
N -t 31.000000 -n 0 -e 9999.573920
N -t 31.000000 -n 1 -e 9999.334880
N -t 31.000000 -n 2 -e 9999.245840
N -t 31.000000 -n 3 -e 9999.156800
N -t 31.000000 -n 4 -e 9999.245840
N -t 31.000000 -n 5 -e 9999.334880
s 31.330025000 _5_ MAC  --- 3 vectorbasedforward 50 [0 5000000 ffff0008 0] [energy 9999.334880 ei 0.245 es 0.000 et 0.240 er 0.180] ------- [5:0 5:255 0 0] 
r 31.390025000 _4_ MAC  --- 3 vectorbasedforward 50 [0 5000000 ffff0008 0] [energy 9999.213040 ei 0.247 es 0.000 et 0.240 er 0.300] ------- [5:0 5:255 0 0] 
r 31.416691667 _3_ MAC  --- 3 vectorbasedforward 50 [0 5000000 ffff0008 0] [energy 9999.123786 ei 0.246 es 0.000 et 0.240 er 0.390] ------- [5:0 5:255 0 0] 
N -t 32.000000 -n 0 -e 9999.565920
N -t 32.000000 -n 1 -e 9999.326880
N -t 32.000000 -n 2 -e 9999.237840
N -t 32.000000 -n 3 -e 9999.119120
N -t 32.000000 -n 4 -e 9999.208160
N -t 32.000000 -n 5 -e 9999.247200
s 32.004464224 _3_ MAC  --- 3 vectorbasedforward 50 [0 3000000 ffff0008 0] [energy 9999.119120 ei 0.251 es 0.000 et 0.240 er 0.390] ------- [5:0 5:255 0 0] 
r 32.071130891 _4_ MAC  --- 3 vectorbasedforward 50 [0 3000000 ffff0008 0] [energy 9999.177911 ei 0.252 es 0.000 et 0.240 er 0.330] ------- [5:0 5:255 0 0] 
r 32.071130891 _2_ MAC  --- 3 vectorbasedforward 50 [0 3000000 ffff0008 0] [energy 9999.207591 ei 0.252 es 0.000 et 0.240 er 0.300] ------- [5:0 5:255 0 0] 
r 32.091130891 _5_ MAC  --- 3 vectorbasedforward 50 [0 3000000 ffff0008 0] [energy 9999.216791 ei 0.253 es 0.000 et 0.320 er 0.210] ------- [5:0 5:255 0 0] 
r 32.097797558 _1_ MAC  --- 3 vectorbasedforward 50 [0 3000000 ffff0008 0] [energy 9999.296418 ei 0.254 es 0.000 et 0.240 er 0.210] ------- [5:0 5:255 0 0] 
s 32.320068360 _4_ MAC  --- 3 vectorbasedforward 50 [0 4000000 ffff0008 0] [energy 9999.177911 ei 0.252 es 0.000 et 0.240 er 0.330] ------- [5:0 5:255 0 0] 
r 32.380068360 _5_ MAC  --- 3 vectorbasedforward 50 [0 4000000 ffff0008 0] [energy 9999.184799 ei 0.255 es 0.000 et 0.320 er 0.240] ------- [5:0 5:255 0 0] 
r 32.386735027 _3_ MAC  --- 3 vectorbasedforward 50 [0 4000000 ffff0008 0] [energy 9999.006666 ei 0.253 es 0.000 et 0.320 er 0.420] ------- [5:0 5:255 0 0] 
r 32.413401693 _2_ MAC  --- 3 vectorbasedforward 50 [0 4000000 ffff0008 0] [energy 9999.175173 ei 0.255 es 0.000 et 0.240 er 0.330] ------- [5:0 5:255 0 0] 
s 32.571727820 _1_ MAC  --- 3 vectorbasedforward 50 [0 1000000 ffff0008 0] [energy 9999.296418 ei 0.254 es 0.000 et 0.240 er 0.210] ------- [5:0 5:255 0 0] 
r 32.638394486 _2_ MAC  --- 3 vectorbasedforward 50 [0 1000000 ffff0008 0] [energy 9999.143693 ei 0.256 es 0.000 et 0.240 er 0.360] ------- [5:0 5:255 0 0] 
r 32.645061153 _0_ MAC  --- 3 vectorbasedforward 50 [0 1000000 ffff0008 0] [energy 9999.531080 ei 0.259 es 0.000 et 0.000 er 0.210] ------- [5:0 5:255 0 0] 
r 32.665061153 _3_ MAC  --- 3 vectorbasedforward 50 [0 1000000 ffff0008 0] [energy 9998.974760 ei 0.255 es 0.000 et 0.320 er 0.450] ------- [5:0 5:255 0 0] 
s 32.925777560 _2_ MAC  --- 3 vectorbasedforward 50 [0 2000000 ffff0008 0] [energy 9999.143693 ei 0.256 es 0.000 et 0.240 er 0.360] ------- [5:0 5:255 0 0] 
r 32.992444227 _3_ MAC  --- 3 vectorbasedforward 50 [0 2000000 ffff0008 0] [energy 9998.942460 ei 0.258 es 0.000 et 0.320 er 0.480] ------- [5:0 5:255 0 0] 
r 32.992444227 _1_ MAC  --- 3 vectorbasedforward 50 [0 2000000 ffff0008 0] [energy 9999.179900 ei 0.260 es 0.000 et 0.320 er 0.240] ------- [5:0 5:255 0 0] 
N -t 33.000000 -n 0 -e 9999.498354
N -t 33.000000 -n 1 -e 9999.179840
N -t 33.000000 -n 2 -e 9999.061120
N -t 33.000000 -n 3 -e 9998.942400
N -t 33.000000 -n 4 -e 9999.060967
N -t 33.000000 -n 5 -e 9999.179840
r 33.019110893 _4_ MAC  --- 3 vectorbasedforward 50 [0 2000000 ffff0008 0] [energy 9999.060967 ei 0.259 es 0.000 et 0.320 er 0.360] ------- [5:0 5:255 0 0] 
r 33.025777560 _0_ MAC  --- 3 vectorbasedforward 50 [0 2000000 ffff0008 0] [energy 9999.498354 ei 0.262 es 0.000 et 0.000 er 0.240] ------- [5:0 5:255 0 0] 
N -t 34.000000 -n 0 -e 9999.490560
N -t 34.000000 -n 1 -e 9999.171840
N -t 34.000000 -n 2 -e 9999.053120
N -t 34.000000 -n 3 -e 9998.934400
N -t 34.000000 -n 4 -e 9999.053120
N -t 34.000000 -n 5 -e 9999.171840
N -t 35.000000 -n 0 -e 9999.482560
N -t 35.000000 -n 1 -e 9999.163840
N -t 35.000000 -n 2 -e 9999.045120
N -t 35.000000 -n 3 -e 9998.926400
N -t 35.000000 -n 4 -e 9999.045120
N -t 35.000000 -n 5 -e 9999.163840
N -t 36.000000 -n 0 -e 9999.474560
N -t 36.000000 -n 1 -e 9999.155840
N -t 36.000000 -n 2 -e 9999.037120
N -t 36.000000 -n 3 -e 9998.918400
N -t 36.000000 -n 4 -e 9999.037120
N -t 36.000000 -n 5 -e 9999.155840
N -t 37.000000 -n 0 -e 9999.466560
N -t 37.000000 -n 1 -e 9999.147840
N -t 37.000000 -n 2 -e 9999.029120
N -t 37.000000 -n 3 -e 9998.910400
N -t 37.000000 -n 4 -e 9999.029120
N -t 37.000000 -n 5 -e 9999.147840
N -t 38.000000 -n 0 -e 9999.458560
N -t 38.000000 -n 1 -e 9999.139840
N -t 38.000000 -n 2 -e 9999.021120
N -t 38.000000 -n 3 -e 9998.902400
N -t 38.000000 -n 4 -e 9999.021120
N -t 38.000000 -n 5 -e 9999.139840
N -t 39.000000 -n 0 -e 9999.450560
N -t 39.000000 -n 1 -e 9999.131840
N -t 39.000000 -n 2 -e 9999.013120
N -t 39.000000 -n 3 -e 9998.894400
N -t 39.000000 -n 4 -e 9999.013120
N -t 39.000000 -n 5 -e 9999.131840
N -t 40.000000 -n 0 -e 9999.442560
N -t 40.000000 -n 1 -e 9999.123840
N -t 40.000000 -n 2 -e 9999.005120
N -t 40.000000 -n 3 -e 9998.886400
N -t 40.000000 -n 4 -e 9999.005120
N -t 40.000000 -n 5 -e 9999.123840
N -t 41.000000 -n 0 -e 9999.434560
N -t 41.000000 -n 1 -e 9999.115840
N -t 41.000000 -n 2 -e 9998.997120
N -t 41.000000 -n 3 -e 9998.878400
N -t 41.000000 -n 4 -e 9998.997120
N -t 41.000000 -n 5 -e 9999.115840
s 41.330025000 _5_ MAC  --- 4 vectorbasedforward 50 [0 5000000 ffff0008 0] [energy 9999.115840 ei 0.324 es 0.000 et 0.320 er 0.240] ------- [5:0 5:255 0 0] 
r 41.390025000 _4_ MAC  --- 4 vectorbasedforward 50 [0 5000000 ffff0008 0] [energy 9998.964320 ei 0.326 es 0.000 et 0.320 er 0.390] ------- [5:0 5:255 0 0] 
r 41.416691667 _3_ MAC  --- 4 vectorbasedforward 50 [0 5000000 ffff0008 0] [energy 9998.845386 ei 0.325 es 0.000 et 0.320 er 0.510] ------- [5:0 5:255 0 0] 
N -t 42.000000 -n 0 -e 9999.426560
N -t 42.000000 -n 1 -e 9999.107840
N -t 42.000000 -n 2 -e 9998.989120
N -t 42.000000 -n 3 -e 9998.840720
N -t 42.000000 -n 4 -e 9998.959440
N -t 42.000000 -n 5 -e 9999.028160
s 42.004464224 _3_ MAC  --- 4 vectorbasedforward 50 [0 3000000 ffff0008 0] [energy 9998.840720 ei 0.329 es 0.000 et 0.320 er 0.510] ------- [5:0 5:255 0 0] 
r 42.071130891 _4_ MAC  --- 4 vectorbasedforward 50 [0 3000000 ffff0008 0] [energy 9998.929191 ei 0.331 es 0.000 et 0.320 er 0.420] ------- [5:0 5:255 0 0] 
r 42.071130891 _2_ MAC  --- 4 vectorbasedforward 50 [0 3000000 ffff0008 0] [energy 9998.958871 ei 0.331 es 0.000 et 0.320 er 0.390] ------- [5:0 5:255 0 0] 
r 42.091130891 _5_ MAC  --- 4 vectorbasedforward 50 [0 3000000 ffff0008 0] [energy 9998.997751 ei 0.332 es 0.000 et 0.400 er 0.270] ------- [5:0 5:255 0 0] 
r 42.097797558 _1_ MAC  --- 4 vectorbasedforward 50 [0 3000000 ffff0008 0] [energy 9999.077378 ei 0.333 es 0.000 et 0.320 er 0.270] ------- [5:0 5:255 0 0] 
s 42.320068360 _4_ MAC  --- 4 vectorbasedforward 50 [0 4000000 ffff0008 0] [energy 9998.929191 ei 0.331 es 0.000 et 0.320 er 0.420] ------- [5:0 5:255 0 0] 
r 42.380068360 _5_ MAC  --- 4 vectorbasedforward 50 [0 4000000 ffff0008 0] [energy 9998.965759 ei 0.334 es 0.000 et 0.400 er 0.300] ------- [5:0 5:255 0 0] 
r 42.386735027 _3_ MAC  --- 4 vectorbasedforward 50 [0 4000000 ffff0008 0] [energy 9998.728266 ei 0.332 es 0.000 et 0.400 er 0.540] ------- [5:0 5:255 0 0] 
r 42.413401693 _2_ MAC  --- 4 vectorbasedforward 50 [0 4000000 ffff0008 0] [energy 9998.926453 ei 0.334 es 0.000 et 0.320 er 0.420] ------- [5:0 5:255 0 0] 
s 42.571727820 _1_ MAC  --- 4 vectorbasedforward 50 [0 1000000 ffff0008 0] [energy 9999.077378 ei 0.333 es 0.000 et 0.320 er 0.270] ------- [5:0 5:255 0 0] 
r 42.638394486 _2_ MAC  --- 4 vectorbasedforward 50 [0 1000000 ffff0008 0] [energy 9998.894973 ei 0.335 es 0.000 et 0.320 er 0.450] ------- [5:0 5:255 0 0] 
r 42.645061153 _0_ MAC  --- 4 vectorbasedforward 50 [0 1000000 ffff0008 0] [energy 9999.391720 ei 0.338 es 0.000 et 0.000 er 0.270] ------- [5:0 5:255 0 0] 
r 42.665061153 _3_ MAC  --- 4 vectorbasedforward 50 [0 1000000 ffff0008 0] [energy 9998.696360 ei 0.334 es 0.000 et 0.400 er 0.570] ------- [5:0 5:255 0 0] 
s 42.925777560 _2_ MAC  --- 4 vectorbasedforward 50 [0 2000000 ffff0008 0] [energy 9998.894973 ei 0.335 es 0.000 et 0.320 er 0.450] ------- [5:0 5:255 0 0] 
r 42.992444227 _3_ MAC  --- 4 vectorbasedforward 50 [0 2000000 ffff0008 0] [energy 9998.664060 ei 0.336 es 0.000 et 0.400 er 0.600] ------- [5:0 5:255 0 0] 
r 42.992444227 _1_ MAC  --- 4 vectorbasedforward 50 [0 2000000 ffff0008 0] [energy 9998.960860 ei 0.339 es 0.000 et 0.400 er 0.300] ------- [5:0 5:255 0 0] 
N -t 43.000000 -n 0 -e 9999.358994
N -t 43.000000 -n 1 -e 9998.960800
N -t 43.000000 -n 2 -e 9998.812400
N -t 43.000000 -n 3 -e 9998.664000
N -t 43.000000 -n 4 -e 9998.812247
N -t 43.000000 -n 5 -e 9998.960800
r 43.019110893 _4_ MAC  --- 4 vectorbasedforward 50 [0 2000000 ffff0008 0] [energy 9998.812247 ei 0.338 es 0.000 et 0.400 er 0.450] ------- [5:0 5:255 0 0] 
r 43.025777560 _0_ MAC  --- 4 vectorbasedforward 50 [0 2000000 ffff0008 0] [energy 9999.358994 ei 0.341 es 0.000 et 0.000 er 0.300] ------- [5:0 5:255 0 0] 
N -t 44.000000 -n 0 -e 9999.351200
N -t 44.000000 -n 1 -e 9998.952800
N -t 44.000000 -n 2 -e 9998.804400
N -t 44.000000 -n 3 -e 9998.656000
N -t 44.000000 -n 4 -e 9998.804400
N -t 44.000000 -n 5 -e 9998.952800
N -t 45.000000 -n 0 -e 9999.343200
N -t 45.000000 -n 1 -e 9998.944800
N -t 45.000000 -n 2 -e 9998.796400
N -t 45.000000 -n 3 -e 9998.648000
N -t 45.000000 -n 4 -e 9998.796400
N -t 45.000000 -n 5 -e 9998.944800
N -t 46.000000 -n 0 -e 9999.335200
N -t 46.000000 -n 1 -e 9998.936800
N -t 46.000000 -n 2 -e 9998.788400
N -t 46.000000 -n 3 -e 9998.640000
N -t 46.000000 -n 4 -e 9998.788400
N -t 46.000000 -n 5 -e 9998.936800
N -t 47.000000 -n 0 -e 9999.327200
N -t 47.000000 -n 1 -e 9998.928800
N -t 47.000000 -n 2 -e 9998.780400
N -t 47.000000 -n 3 -e 9998.632000
N -t 47.000000 -n 4 -e 9998.780400
N -t 47.000000 -n 5 -e 9998.928800
N -t 48.000000 -n 0 -e 9999.319200
N -t 48.000000 -n 1 -e 9998.920800
N -t 48.000000 -n 2 -e 9998.772400
N -t 48.000000 -n 3 -e 9998.624000
N -t 48.000000 -n 4 -e 9998.772400
N -t 48.000000 -n 5 -e 9998.920800
N -t 49.000000 -n 0 -e 9999.311200
N -t 49.000000 -n 1 -e 9998.912800
N -t 49.000000 -n 2 -e 9998.764400
N -t 49.000000 -n 3 -e 9998.616000
N -t 49.000000 -n 4 -e 9998.764400
N -t 49.000000 -n 5 -e 9998.912800
N -t 50.000000 -n 0 -e 9999.303200
N -t 50.000000 -n 1 -e 9998.904800
N -t 50.000000 -n 2 -e 9998.756400
N -t 50.000000 -n 3 -e 9998.608000
N -t 50.000000 -n 4 -e 9998.756400
N -t 50.000000 -n 5 -e 9998.904800
N -t 51.000000 -n 0 -e 9999.295200
N -t 51.000000 -n 1 -e 9998.896800
N -t 51.000000 -n 2 -e 9998.748400
N -t 51.000000 -n 3 -e 9998.600000
N -t 51.000000 -n 4 -e 9998.748400
N -t 51.000000 -n 5 -e 9998.896800
s 51.330025000 _5_ MAC  --- 5 vectorbasedforward 50 [0 5000000 ffff0008 0] [energy 9998.896800 ei 0.403 es 0.000 et 0.400 er 0.300] ------- [5:0 5:255 0 0] 
r 51.390025000 _4_ MAC  --- 5 vectorbasedforward 50 [0 5000000 ffff0008 0] [energy 9998.715600 ei 0.404 es 0.000 et 0.400 er 0.480] ------- [5:0 5:255 0 0] 
r 51.416691667 _3_ MAC  --- 5 vectorbasedforward 50 [0 5000000 ffff0008 0] [energy 9998.566986 ei 0.403 es 0.000 et 0.400 er 0.630] ------- [5:0 5:255 0 0] 
N -t 52.000000 -n 0 -e 9999.287200
N -t 52.000000 -n 1 -e 9998.888800
N -t 52.000000 -n 2 -e 9998.740400
N -t 52.000000 -n 3 -e 9998.562320
N -t 52.000000 -n 4 -e 9998.710720
N -t 52.000000 -n 5 -e 9998.809120
s 52.004464224 _3_ MAC  --- 5 vectorbasedforward 50 [0 3000000 ffff0008 0] [energy 9998.562320 ei 0.408 es 0.000 et 0.400 er 0.630] ------- [5:0 5:255 0 0] 
r 52.071130891 _4_ MAC  --- 5 vectorbasedforward 50 [0 3000000 ffff0008 0] [energy 9998.680471 ei 0.410 es 0.000 et 0.400 er 0.510] ------- [5:0 5:255 0 0] 
r 52.071130891 _2_ MAC  --- 5 vectorbasedforward 50 [0 3000000 ffff0008 0] [energy 9998.710151 ei 0.410 es 0.000 et 0.400 er 0.480] ------- [5:0 5:255 0 0] 
r 52.091130891 _5_ MAC  --- 5 vectorbasedforward 50 [0 3000000 ffff0008 0] [energy 9998.778711 ei 0.411 es 0.000 et 0.480 er 0.330] ------- [5:0 5:255 0 0] 
r 52.097797558 _1_ MAC  --- 5 vectorbasedforward 50 [0 3000000 ffff0008 0] [energy 9998.858338 ei 0.412 es 0.000 et 0.400 er 0.330] ------- [5:0 5:255 0 0] 
s 52.320068360 _4_ MAC  --- 5 vectorbasedforward 50 [0 4000000 ffff0008 0] [energy 9998.680471 ei 0.410 es 0.000 et 0.400 er 0.510] ------- [5:0 5:255 0 0] 
r 52.380068360 _5_ MAC  --- 5 vectorbasedforward 50 [0 4000000 ffff0008 0] [energy 9998.746719 ei 0.413 es 0.000 et 0.480 er 0.360] ------- [5:0 5:255 0 0] 
r 52.386735027 _3_ MAC  --- 5 vectorbasedforward 50 [0 4000000 ffff0008 0] [energy 9998.449866 ei 0.410 es 0.000 et 0.480 er 0.660] ------- [5:0 5:255 0 0] 
r 52.413401693 _2_ MAC  --- 5 vectorbasedforward 50 [0 4000000 ffff0008 0] [energy 9998.677733 ei 0.412 es 0.000 et 0.400 er 0.510] ------- [5:0 5:255 0 0] 
s 52.571727820 _1_ MAC  --- 5 vectorbasedforward 50 [0 1000000 ffff0008 0] [energy 9998.858338 ei 0.412 es 0.000 et 0.400 er 0.330] ------- [5:0 5:255 0 0] 
r 52.638394486 _2_ MAC  --- 5 vectorbasedforward 50 [0 1000000 ffff0008 0] [energy 9998.646253 ei 0.414 es 0.000 et 0.400 er 0.540] ------- [5:0 5:255 0 0] 
r 52.645061153 _0_ MAC  --- 5 vectorbasedforward 50 [0 1000000 ffff0008 0] [energy 9999.252360 ei 0.418 es 0.000 et 0.000 er 0.330] ------- [5:0 5:255 0 0] 
r 52.665061153 _3_ MAC  --- 5 vectorbasedforward 50 [0 1000000 ffff0008 0] [energy 9998.417960 ei 0.412 es 0.000 et 0.480 er 0.690] ------- [5:0 5:255 0 0] 
s 52.925777560 _2_ MAC  --- 5 vectorbasedforward 50 [0 2000000 ffff0008 0] [energy 9998.646253 ei 0.414 es 0.000 et 0.400 er 0.540] ------- [5:0 5:255 0 0] 